
     Program PWSCF v.7.3 starts on 29Jul2024 at 16:16:58 

     This program is part of the open-source Quantum ESPRESSO suite
     for quantum simulation of materials; please cite
         "P. Giannozzi et al., J. Phys.:Condens. Matter 21 395502 (2009);
         "P. Giannozzi et al., J. Phys.:Condens. Matter 29 465901 (2017);
         "P. Giannozzi et al., J. Chem. Phys. 152 154105 (2020);
          URL http://www.quantum-espresso.org", 
     in publications or presentations arising from this work. More details at
     http://www.quantum-espresso.org/quote

     Parallel version (MPI & OpenMP), running on      32 processor cores
     Number of MPI processes:                 1
     Threads/MPI process:                    32

     MPI processes distributed on     1 nodes
     353992 MiB available memory on the printing compute node when the environment starts
 
     Waiting for input...
     Reading input from standard input
Warning: card &CELL ignored
Warning: card CELL_DYNAMICS='BFGS' ignored
Warning: card PRESS=0.0 ignored
Warning: card CELL_DOFREE='2DXY' ignored
Warning: card / ignored

     Current dimensions of program PWSCF are:
     Max number of different atomic species (ntypx) = 10
     Max number of k-points (npk) =  40000
     Max angular momentum in pseudopotentials (lmaxx) =  4
read_pp_mesh; mismatch in mesh size, discarding the one in header
read_pp_mesh; mismatch in mesh size, discarding the one in header
read_pp_mesh; mismatch in mesh size, discarding the one in header
     Message from routine setup:
     using ibrav=0 with symmetry is DISCOURAGED, use correct ibrav instead
 
     Subspace diagonalization in iterative solution of the eigenvalue problem:
     a serial algorithm will be used

 
     G-vector sticks info
     --------------------
     sticks:   dense  smooth     PW     G-vecs:    dense   smooth      PW
     Sum        9519    4751   1333              2091591   739235  109795
 
     Using Slab Decomposition
 


     bravais-lattice index     =            0
     lattice parameter (alat)  =      36.0027  a.u.
     unit-cell volume          =   11779.7258 (a.u.)^3
     number of atoms/cell      =           20
     number of atomic types    =            3
     number of electrons       =       220.00
     number of Kohn-Sham states=          132
     kinetic-energy cutoff     =      60.0000  Ry
     charge density cutoff     =     480.0000  Ry
     scf convergence threshold =      1.0E-08
     mixing beta               =       0.2000
     number of iterations used =            8  plain     mixing
     energy convergence thresh.=      1.0E-04
     force convergence thresh. =      1.0E-03
     Exchange-correlation= SLA PW PBX PBC
                           (   1   4   3   4   0   0   0)
     nstep                     =         2000


     GPU acceleration is ACTIVE.  1 visible GPUs per MPI rank
     GPU-aware MPI enabled


     celldm(1)=  36.002684  celldm(2)=   0.000000  celldm(3)=   0.000000
     celldm(4)=   0.000000  celldm(5)=   0.000000  celldm(6)=   0.000000

     crystal axes: (cart. coord. in units of alat)
               a(1) = (   1.000000   0.000000   0.000000 )  
               a(2) = (   0.000000   0.192092   0.000000 )  
               a(3) = (   0.000000   0.000000   1.314081 )  

     reciprocal axes: (cart. coord. in units 2 pi/alat)
               b(1) = (  1.000000  0.000000  0.000000 )  
               b(2) = (  0.000000  5.205848  0.000000 )  
               b(3) = (  0.000000  0.000000  0.760988 )  


     PseudoPot. # 1 for Ta read from file:
     /ddn/data/physics/eamoujaes/PSEUDO-CREATED/Ta.upf
     MD5 check sum: d865b2c2c09566b116f2b8decb2c153d
     Pseudo is Projector augmented-wave + core cor, Zval = 13.0
     Generated using ATOMPAW code
     Shape of augmentation charge: SINC**2
     Using radial grid of 2342 points,  6 beta functions with: 
                l(1) =   0
                l(2) =   0
                l(3) =   1
                l(4) =   1
                l(5) =   2
                l(6) =   2
     Q(r) pseudized with 0 coefficients 


     PseudoPot. # 2 for Ni read from file:
     /ddn/data/physics/eamoujaes/PSEUDO-CREATED/Ni.upf
     MD5 check sum: 85a2a5d9d38f4289a1cc30d5adb66a03
     Pseudo is Projector augmented-wave + core cor, Zval = 18.0
     Generated using ATOMPAW code
     Shape of augmentation charge: SINC**2
     Using radial grid of 2342 points,  6 beta functions with: 
                l(1) =   0
                l(2) =   0
                l(3) =   1
                l(4) =   1
                l(5) =   2
                l(6) =   2
     Q(r) pseudized with 0 coefficients 


     PseudoPot. # 3 for Te read from file:
     /ddn/data/physics/eamoujaes/PSEUDO-CREATED/Te.upf
     MD5 check sum: 8d958f193a7511a138982c2e72838810
     Pseudo is Projector augmented-wave + core cor, Zval =  6.0
     Generated using ATOMPAW code
     Shape of augmentation charge: SINC**2
     Using radial grid of 2342 points,  4 beta functions with: 
                l(1) =   0
                l(2) =   0
                l(3) =   1
                l(4) =   1
     Q(r) pseudized with 0 coefficients 


     atomic species   valence    mass     pseudopotential
     Ta               13.00   180.94790     Ta( 1.00)
     Ni               18.00    58.69340     Ni( 1.00)
     Te                6.00   127.60000     Te( 1.00)

      2 Sym. Ops. (no inversion) found ( 1 have fractional translation)



   Cartesian axes

     site n.     atom                  positions (alat units)
         1        Ta     tau(   1) = (   0.8078943   0.0480229   0.6531582  )
         2        Ta     tau(   2) = (   0.3449307   0.1440688   0.6609347  )
         3        Ta     tau(   3) = (   0.1188946   0.0480229   0.6531491  )
         4        Ta     tau(   4) = (   0.5818586   0.1440688   0.6609431  )
         5        Ni     tau(   5) = (   0.6752332   0.0480229   0.6173532  )
         6        Ni     tau(   6) = (   0.2122687   0.1440688   0.6967396  )
         7        Ni     tau(   7) = (   0.2515493   0.0480229   0.6173392  )
         8        Ni     tau(   8) = (   0.7145131   0.1440688   0.6967531  )
         9        Ni     tau(   9) = (   0.4633865   0.0480229   0.6491883  )
        10        Ni     tau(  10) = (   0.0004239   0.1440688   0.6649036  )
        11        Te     tau(  11) = (   0.7460210   0.1440688   0.5529796  )
        12        Te     tau(  12) = (   0.2830558   0.0480229   0.7611130  )
        13        Te     tau(  13) = (   0.5561382   0.0480229   0.5521438  )
        14        Te     tau(  14) = (   0.0931749   0.1440688   0.7619487  )
        15        Te     tau(  15) = (   0.1807540   0.1440688   0.5529679  )
        16        Te     tau(  16) = (   0.6437182   0.0480229   0.7611245  )
        17        Te     tau(  17) = (   0.3706536   0.0480229   0.5521353  )
        18        Te     tau(  18) = (   0.8336169   0.1440688   0.7619578  )
        19        Te     tau(  19) = (   0.0004356   0.0480229   0.5688501  )
        20        Te     tau(  20) = (   0.4633976   0.1440688   0.7452408  )

     number of k points=    12  Gaussian smearing, width (Ry)=  0.0020
                       cart. coord. in units 2pi/alat
        k(    1) = (   0.0000000   0.0000000   0.0000000), wk =   0.1000000
        k(    2) = (   0.0000000   0.5205848   0.0000000), wk =   0.2000000
        k(    3) = (   0.0000000   1.0411695   0.0000000), wk =   0.2000000
        k(    4) = (   0.0000000   1.5617543   0.0000000), wk =   0.2000000
        k(    5) = (   0.0000000   2.0823390   0.0000000), wk =   0.2000000
        k(    6) = (   0.0000000  -2.6029238   0.0000000), wk =   0.1000000
        k(    7) = (  -0.5000000   0.0000000   0.0000000), wk =   0.1000000
        k(    8) = (  -0.5000000   0.5205848   0.0000000), wk =   0.2000000
        k(    9) = (  -0.5000000   1.0411695   0.0000000), wk =   0.2000000
        k(   10) = (  -0.5000000   1.5617543   0.0000000), wk =   0.2000000
        k(   11) = (  -0.5000000   2.0823390   0.0000000), wk =   0.2000000
        k(   12) = (  -0.5000000  -2.6029238   0.0000000), wk =   0.1000000

     Dense  grid:  2091591 G-vectors     FFT dimensions: ( 256,  50, 360)

     Smooth grid:   739235 G-vectors     FFT dimensions: ( 180,  36, 240)

     Estimated max dynamical RAM per process >      10.69 GB

     Initial potential from superposition of free atoms

     starting charge     219.9927, renormalised to     220.0000

     negative rho (up, down):  5.234E-02 0.000E+00
     Starting wfcs are  260 randomized atomic wfcs
     Checking if some PAW data can be deallocated... 

     total cpu time spent up to now is       66.9 secs

     Self-consistent Calculation

     iteration #  1     ecut=    60.00 Ry     beta= 0.20
     Davidson diagonalization with overlap
     ethr =  1.00E-02,  avg # of iterations =  3.0

     negative rho (up, down):  5.290E-02 0.000E+00

     total cpu time spent up to now is      104.9 secs

     total energy              =   -9107.69712548 Ry
     estimated scf accuracy    <       8.23610570 Ry

     iteration #  2     ecut=    60.00 Ry     beta= 0.20
     Davidson diagonalization with overlap
     ethr =  3.74E-03,  avg # of iterations =  3.0

     negative rho (up, down):  5.351E-02 0.000E+00

     total cpu time spent up to now is      142.5 secs

     total energy              =   -9105.41863395 Ry
     estimated scf accuracy    <      61.57777372 Ry

     iteration #  3     ecut=    60.00 Ry     beta= 0.20
     Davidson diagonalization with overlap
     ethr =  3.74E-03,  avg # of iterations =  2.0

     negative rho (up, down):  5.409E-02 0.000E+00

     total cpu time spent up to now is      179.5 secs

     total energy              =   -9105.94496179 Ry
     estimated scf accuracy    <     152.97535135 Ry

     iteration #  4     ecut=    60.00 Ry     beta= 0.20
     Davidson diagonalization with overlap
     ethr =  3.74E-03,  avg # of iterations =  1.3

     negative rho (up, down):  5.509E-02 0.000E+00

     total cpu time spent up to now is      216.9 secs

     total energy              =   -9109.79859433 Ry
     estimated scf accuracy    <       2.95761348 Ry

     iteration #  5     ecut=    60.00 Ry     beta= 0.20
     Davidson diagonalization with overlap
     ethr =  1.34E-03,  avg # of iterations =  1.0

     negative rho (up, down):  5.600E-02 0.000E+00

     total cpu time spent up to now is      253.8 secs

     total energy              =   -9109.84819577 Ry
     estimated scf accuracy    <       1.71197473 Ry

     iteration #  6     ecut=    60.00 Ry     beta= 0.20
     Davidson diagonalization with overlap
     ethr =  7.78E-04,  avg # of iterations =  1.0

     negative rho (up, down):  5.776E-02 0.000E+00

     total cpu time spent up to now is      291.0 secs

     total energy              =   -9109.75343284 Ry
     estimated scf accuracy    <       1.21736960 Ry

     iteration #  7     ecut=    60.00 Ry     beta= 0.20
     Davidson diagonalization with overlap
     ethr =  5.53E-04,  avg # of iterations =  1.0

     negative rho (up, down):  6.135E-02 0.000E+00

     total cpu time spent up to now is      328.1 secs

     total energy              =   -9109.66496027 Ry
     estimated scf accuracy    <       0.49409970 Ry

     iteration #  8     ecut=    60.00 Ry     beta= 0.20
     Davidson diagonalization with overlap
     ethr =  2.25E-04,  avg # of iterations =  2.0

     negative rho (up, down):  6.218E-02 0.000E+00

     total cpu time spent up to now is      365.5 secs

     total energy              =   -9109.73745151 Ry
     estimated scf accuracy    <       0.31472422 Ry

     iteration #  9     ecut=    60.00 Ry     beta= 0.20
     Davidson diagonalization with overlap
     ethr =  1.43E-04,  avg # of iterations =  1.1

     negative rho (up, down):  6.276E-02 0.000E+00

     total cpu time spent up to now is      402.9 secs

     total energy              =   -9109.71765612 Ry
     estimated scf accuracy    <       0.17652797 Ry

     iteration # 10     ecut=    60.00 Ry     beta= 0.20
     Davidson diagonalization with overlap
     ethr =  8.02E-05,  avg # of iterations =  3.8

     negative rho (up, down):  6.355E-02 0.000E+00

     total cpu time spent up to now is      441.0 secs

     total energy              =   -9109.72951435 Ry
     estimated scf accuracy    <       0.01260532 Ry

     iteration # 11     ecut=    60.00 Ry     beta= 0.20
     Davidson diagonalization with overlap
     c_bands:  1 eigenvalues not converged
     c_bands:  1 eigenvalues not converged
     c_bands:  1 eigenvalues not converged
     ethr =  5.73E-06,  avg # of iterations = 14.2

     negative rho (up, down):  6.413E-02 0.000E+00

     total cpu time spent up to now is      480.5 secs

     total energy              =   -9109.73087058 Ry
     estimated scf accuracy    <       0.01839764 Ry

     iteration # 12     ecut=    60.00 Ry     beta= 0.20
     Davidson diagonalization with overlap
     c_bands:  1 eigenvalues not converged
     ethr =  5.73E-06,  avg # of iterations =  3.2

     negative rho (up, down):  6.467E-02 0.000E+00

     total cpu time spent up to now is      518.5 secs

     total energy              =   -9109.72971564 Ry
     estimated scf accuracy    <       0.00973991 Ry

     iteration # 13     ecut=    60.00 Ry     beta= 0.20
     Davidson diagonalization with overlap
     ethr =  4.43E-06,  avg # of iterations =  1.2

     negative rho (up, down):  6.513E-02 0.000E+00

     total cpu time spent up to now is      556.0 secs

     total energy              =   -9109.73047358 Ry
     estimated scf accuracy    <       0.00195297 Ry

     iteration # 14     ecut=    60.00 Ry     beta= 0.20
     Davidson diagonalization with overlap
     ethr =  8.88E-07,  avg # of iterations =  2.2

     negative rho (up, down):  6.538E-02 0.000E+00

     total cpu time spent up to now is      593.8 secs

     total energy              =   -9109.73063139 Ry
     estimated scf accuracy    <       0.00051173 Ry

     iteration # 15     ecut=    60.00 Ry     beta= 0.20
     Davidson diagonalization with overlap
     ethr =  2.33E-07,  avg # of iterations =  2.0

     negative rho (up, down):  6.541E-02 0.000E+00

     total cpu time spent up to now is      631.3 secs

     total energy              =   -9109.73065760 Ry
     estimated scf accuracy    <       0.00023239 Ry

     iteration # 16     ecut=    60.00 Ry     beta= 0.20
     Davidson diagonalization with overlap
     ethr =  1.06E-07,  avg # of iterations =  1.1

     negative rho (up, down):  6.552E-02 0.000E+00

     total cpu time spent up to now is      668.3 secs

     total energy              =   -9109.73067951 Ry
     estimated scf accuracy    <       0.00012447 Ry

     iteration # 17     ecut=    60.00 Ry     beta= 0.20
     Davidson diagonalization with overlap
     ethr =  5.66E-08,  avg # of iterations =  1.3

     negative rho (up, down):  6.550E-02 0.000E+00

     total cpu time spent up to now is      705.9 secs

     total energy              =   -9109.73068229 Ry
     estimated scf accuracy    <       0.00006313 Ry

     iteration # 18     ecut=    60.00 Ry     beta= 0.20
     Davidson diagonalization with overlap
     ethr =  2.87E-08,  avg # of iterations =  1.2

     negative rho (up, down):  6.552E-02 0.000E+00

     total cpu time spent up to now is      743.0 secs

     total energy              =   -9109.73068748 Ry
     estimated scf accuracy    <       0.00001790 Ry

     iteration # 19     ecut=    60.00 Ry     beta= 0.20
     Davidson diagonalization with overlap
     ethr =  8.14E-09,  avg # of iterations =  2.0

     negative rho (up, down):  6.548E-02 0.000E+00

     total cpu time spent up to now is      780.5 secs

     total energy              =   -9109.73068825 Ry
     estimated scf accuracy    <       0.00000844 Ry

     iteration # 20     ecut=    60.00 Ry     beta= 0.20
     Davidson diagonalization with overlap
     ethr =  3.83E-09,  avg # of iterations =  2.0

     negative rho (up, down):  6.546E-02 0.000E+00

     total cpu time spent up to now is      818.3 secs

     total energy              =   -9109.73068915 Ry
     estimated scf accuracy    <       0.00000335 Ry

     iteration # 21     ecut=    60.00 Ry     beta= 0.20
     Davidson diagonalization with overlap
     ethr =  1.52E-09,  avg # of iterations =  1.8

     negative rho (up, down):  6.544E-02 0.000E+00

     total cpu time spent up to now is      855.9 secs

     total energy              =   -9109.73068945 Ry
     estimated scf accuracy    <       0.00000113 Ry

     iteration # 22     ecut=    60.00 Ry     beta= 0.20
     Davidson diagonalization with overlap
     ethr =  5.14E-10,  avg # of iterations =  2.0

     negative rho (up, down):  6.541E-02 0.000E+00

     total cpu time spent up to now is      893.4 secs

     total energy              =   -9109.73068943 Ry
     estimated scf accuracy    <       0.00000079 Ry

     iteration # 23     ecut=    60.00 Ry     beta= 0.20
     Davidson diagonalization with overlap
     ethr =  3.58E-10,  avg # of iterations =  1.8

     negative rho (up, down):  6.538E-02 0.000E+00

     total cpu time spent up to now is      930.8 secs

     total energy              =   -9109.73068952 Ry
     estimated scf accuracy    <       0.00000032 Ry

     iteration # 24     ecut=    60.00 Ry     beta= 0.20
     Davidson diagonalization with overlap
     ethr =  1.43E-10,  avg # of iterations =  2.0

     negative rho (up, down):  6.536E-02 0.000E+00

     total cpu time spent up to now is      968.2 secs

     total energy              =   -9109.73068956 Ry
     estimated scf accuracy    <       0.00000014 Ry

     iteration # 25     ecut=    60.00 Ry     beta= 0.20
     Davidson diagonalization with overlap
     ethr =  6.26E-11,  avg # of iterations =  2.0

     negative rho (up, down):  6.535E-02 0.000E+00

     total cpu time spent up to now is     1005.5 secs

     total energy              =   -9109.73068958 Ry
     estimated scf accuracy    <       0.00000006 Ry

     iteration # 26     ecut=    60.00 Ry     beta= 0.20
     Davidson diagonalization with overlap
     ethr =  2.74E-11,  avg # of iterations =  2.0

     negative rho (up, down):  6.534E-02 0.000E+00

     total cpu time spent up to now is     1042.8 secs

     total energy              =   -9109.73068958 Ry
     estimated scf accuracy    <       0.00000004 Ry

     iteration # 27     ecut=    60.00 Ry     beta= 0.20
     Davidson diagonalization with overlap
     ethr =  1.86E-11,  avg # of iterations =  1.5

     negative rho (up, down):  6.534E-02 0.000E+00

     total cpu time spent up to now is     1080.5 secs

     total energy              =   -9109.73068958 Ry
     estimated scf accuracy    <       0.00000001 Ry

     iteration # 28     ecut=    60.00 Ry     beta= 0.20
     Davidson diagonalization with overlap
     ethr =  6.02E-12,  avg # of iterations =  2.7

     negative rho (up, down):  6.533E-02 0.000E+00

     total cpu time spent up to now is     1118.2 secs

     total energy              =   -9109.73068959 Ry
     estimated scf accuracy    <       0.00000001 Ry

     iteration # 29     ecut=    60.00 Ry     beta= 0.20
     Davidson diagonalization with overlap
     ethr =  6.02E-12,  avg # of iterations =  1.2

     negative rho (up, down):  6.532E-02 0.000E+00

     total cpu time spent up to now is     1155.5 secs

     End of self-consistent calculation

          k = 0.0000 0.0000 0.0000 ( 92657 PWs)   bands (ev):

  -103.9726-103.8843-103.6220-103.5822-103.3062-102.8214 -69.4991 -69.0341
   -68.9555 -68.8944 -64.5169 -64.4495 -64.4023 -64.2842 -64.2410 -64.1853
   -64.1638 -64.1505 -64.0254 -63.9536 -63.9160 -63.8532 -63.8075 -63.7637
   -63.5944 -63.3150 -63.2872 -63.1424 -36.0512 -35.8601 -35.8325 -35.5125
   -35.4942 -35.4621 -35.4443 -35.3904 -35.3876 -35.3615 -35.3394 -35.3290
   -13.2722 -13.0389 -12.7118 -12.5080 -12.3651 -12.1443 -12.0937 -11.9373
   -11.8131 -11.6948  -6.5334  -6.2898  -6.0238  -5.9094  -5.7810  -5.5869
    -5.3685  -4.9906  -4.8120  -4.5215  -4.3450  -4.2159  -4.1979  -4.1145
    -4.0370  -3.9261  -3.9174  -3.7574  -3.6234  -3.5050  -3.5009  -3.2611
    -3.1837  -3.0499  -2.9209  -2.8683  -2.8559  -2.7930  -2.7072  -2.5769
    -2.5205  -2.5036  -2.4211  -2.3627  -2.2163  -2.2139  -2.1022  -2.0296
    -1.9623  -1.8768  -1.8606  -1.8210  -1.6911  -1.6091  -1.5503  -1.5278
    -1.5091  -1.4825  -1.3695  -1.3556  -1.3140  -1.2244  -1.1069  -1.0352
    -0.8947  -0.8766  -0.8256  -0.6946  -0.4660  -0.4003  -0.2321   0.0313
     0.1754   0.3092   0.6940   0.8364   0.8433   0.9215   0.9762   1.0986
     1.1545   1.4052   1.4728   1.9319   1.9961   2.0166   2.2865   2.6607
     2.8341   2.8381   3.0194   3.1079

          k = 0.0000 0.5206 0.0000 ( 92565 PWs)   bands (ev):

  -103.9725-103.8844-103.6219-103.5822-103.3062-102.8214 -69.4989 -69.0339
   -68.9553 -68.8942 -64.5169 -64.4497 -64.4016 -64.2866 -64.2389 -64.1852
   -64.1638 -64.1505 -64.0247 -63.9567 -63.9132 -63.8534 -63.8074 -63.7636
   -63.5943 -63.3150 -63.2872 -63.1424 -36.0507 -35.8668 -35.8316 -35.5118
   -35.4932 -35.4691 -35.4435 -35.3946 -35.3896 -35.3605 -35.3464 -35.3284
   -13.1795 -12.9471 -12.6330 -12.4424 -12.3087 -12.0865 -12.0386 -11.8908
   -11.7760 -11.6346  -6.4505  -6.2060  -5.9269  -5.8171  -5.6938  -5.4839
    -5.2793  -4.9294  -4.7479  -4.5150  -4.3766  -4.3203  -4.2336  -4.1951
    -4.0877  -4.0476  -3.9321  -3.7024  -3.6216  -3.5369  -3.4798  -3.3086
    -3.2694  -3.2112  -3.0142  -2.9886  -2.9253  -2.8782  -2.8516  -2.6945
    -2.6109  -2.5279  -2.4961  -2.3566  -2.3221  -2.2056  -2.1431  -2.1298
    -2.1002  -1.9761  -1.9549  -1.8795  -1.8292  -1.7550  -1.6918  -1.6207
    -1.5674  -1.5103  -1.4396  -1.3808  -1.3339  -1.2347  -1.1943  -1.0421
    -0.9497  -0.8879  -0.8313  -0.7670  -0.4915  -0.3196  -0.1996   0.1050
     0.1532   0.2433   0.5559   0.7428   0.7791   0.8051   1.0053   1.0896
     1.1165   1.3575   1.5347   1.6219   1.7995   2.0606   2.2482   2.3599
     2.5246   2.5800   2.7014   2.9152

          k = 0.0000 1.0412 0.0000 ( 92523 PWs)   bands (ev):

  -103.9724-103.8844-103.6217-103.5824-103.3062-102.8214 -69.4985 -69.0335
   -68.9549 -68.8938 -64.5170 -64.4503 -64.4001 -64.2921 -64.2341 -64.1853
   -64.1640 -64.1508 -64.0229 -63.9638 -63.9074 -63.8539 -63.8074 -63.7636
   -63.5944 -63.3150 -63.2872 -63.1424 -36.0492 -35.8844 -35.8290 -35.5102
   -35.4907 -35.4873 -35.4413 -35.4129 -35.3875 -35.3648 -35.3577 -35.3267
   -12.9153 -12.6864 -12.4157 -12.2701 -12.1464 -11.9253 -11.8862 -11.7607
   -11.6765 -11.4692  -6.2428  -5.9952  -5.6876  -5.6129  -5.4578  -5.2392
    -5.0755  -4.9604  -4.6805  -4.6417  -4.5663  -4.4533  -4.4317  -4.3311
    -4.2396  -4.0940  -3.9940  -3.8887  -3.7803  -3.7533  -3.6107  -3.5976
    -3.4244  -3.3319  -3.2454  -3.1729  -3.0862  -3.0639  -2.9839  -2.9035
    -2.7892  -2.7058  -2.6791  -2.6292  -2.5986  -2.4407  -2.3747  -2.2595
    -2.2227  -2.1745  -2.0522  -2.0147  -1.9320  -1.8640  -1.8289  -1.7478
    -1.6286  -1.5738  -1.5656  -1.5357  -1.3577  -1.3090  -1.2462  -1.2366
    -1.1167  -0.9818  -0.8604  -0.7522  -0.6658  -0.4105  -0.0559   0.1158
     0.2875   0.4222   0.5328   0.6333   0.7037   0.7649   0.9225   0.9916
     1.1275   1.2759   1.3179   1.5323   1.7557   1.8681   1.9914   2.1568
     2.2527   2.4144   2.7652   3.2253

          k = 0.0000 1.5618 0.0000 ( 92447 PWs)   bands (ev):

  -103.9723-103.8845-103.6215-103.5827-103.3062-102.8214 -69.4980 -69.0330
   -68.9544 -68.8933 -64.5171 -64.4510 -64.3980 -64.2981 -64.2290 -64.1852
   -64.1642 -64.1512 -64.0201 -63.9718 -63.9014 -63.8546 -63.8074 -63.7637
   -63.5945 -63.3150 -63.2873 -63.1423 -36.0473 -35.9060 -35.8259 -35.5105
   -35.5076 -35.4872 -35.4389 -35.4350 -35.3876 -35.3844 -35.3544 -35.3247
   -12.5269 -12.3091 -12.1299 -12.0457 -11.9103 -11.7264 -11.6547 -11.5832
   -11.5473 -11.2503  -6.1224  -5.8964  -5.7685  -5.5962  -5.4245  -5.3036
    -5.2066  -5.1129  -4.9185  -4.7429  -4.6000  -4.4654  -4.4401  -4.3813
    -4.3635  -4.2566  -4.1574  -4.0146  -3.9828  -3.8474  -3.7479  -3.7269
    -3.6977  -3.5201  -3.3347  -3.3210  -3.2363  -3.1993  -3.0998  -2.9920
    -2.9486  -2.8758  -2.7639  -2.7497  -2.6816  -2.5543  -2.4459  -2.4130
    -2.3456  -2.2870  -2.2042  -2.1403  -2.0252  -2.0078  -1.9810  -1.8094
    -1.7817  -1.7026  -1.5925  -1.5681  -1.5445  -1.4634  -1.3648  -1.2556
    -1.1857  -1.1429  -1.0020  -0.8862  -0.7595  -0.6132   0.0903   0.1397
     0.2239   0.4006   0.7037   0.7259   0.8821   0.9236   0.9762   1.0997
     1.1371   1.2477   1.4118   1.5473   1.7102   2.0626   2.1079   2.2662
     2.5111   2.5434   2.7849   3.1428

          k = 0.0000 2.0823 0.0000 ( 92321 PWs)   bands (ev):

  -103.9722-103.8846-103.6212-103.5829-103.3062-102.8214 -69.4976 -69.0326
   -68.9540 -68.8929 -64.5173 -64.4517 -64.3960 -64.3024 -64.2253 -64.1854
   -64.1645 -64.1514 -64.0170 -63.9781 -63.8970 -63.8551 -63.8075 -63.7636
   -63.5943 -63.3149 -63.2871 -63.1424 -36.0458 -35.9234 -35.8234 -35.5282
   -35.5064 -35.4845 -35.4536 -35.4363 -35.4054 -35.3826 -35.3517 -35.3231
   -12.1233 -11.9534 -11.9032 -11.7975 -11.6760 -11.5699 -11.4618 -11.4398
   -11.4042 -11.0682  -6.4491  -6.3819  -6.1904  -6.1795  -5.6001  -5.3880
    -5.2538  -5.0856  -5.0740  -4.9016  -4.7362  -4.5520  -4.4862  -4.2620
    -4.1744  -4.1068  -3.9608  -3.9386  -3.8632  -3.8360  -3.7820  -3.7015
    -3.6396  -3.5883  -3.4878  -3.4460  -3.3921  -3.2109  -3.1501  -3.0789
    -2.8790  -2.8634  -2.7893  -2.7180  -2.6244  -2.6046  -2.5516  -2.4879
    -2.4256  -2.3602  -2.2728  -2.2439  -2.1856  -2.1549  -2.0928  -1.9642
    -1.8672  -1.7517  -1.7005  -1.6077  -1.5680  -1.5237  -1.4075  -1.3407
    -1.2516  -1.2246  -1.1428  -1.0601  -0.8758  -0.7842  -0.0902   0.0453
     0.3072   0.4522   0.7361   0.8010   0.8297   1.1097   1.1889   1.3453
     1.4657   1.5057   1.5913   1.7054   1.8019   1.9854   2.2013   2.3131
     2.5879   2.6742   2.8340   2.9576

          k = 0.0000-2.6029 0.0000 ( 92182 PWs)   bands (ev):

  -103.9722-103.8847-103.6211-103.5830-103.3062-102.8214 -69.4975 -69.0324
   -68.9538 -68.8927 -64.5173 -64.4519 -64.3951 -64.3039 -64.2240 -64.1853
   -64.1645 -64.1515 -64.0154 -63.9804 -63.8955 -63.8554 -63.8074 -63.7636
   -63.5941 -63.3149 -63.2869 -63.1424 -36.0452 -35.9301 -35.8224 -35.5351
   -35.5058 -35.4835 -35.4604 -35.4354 -35.4122 -35.3818 -35.3507 -35.3225
   -11.9315 -11.8560 -11.7763 -11.6048 -11.5859 -11.5558 -11.4052 -11.3798
   -11.3348 -11.0022  -6.6811  -6.6169  -6.4197  -6.4166  -5.7888  -5.4244
    -5.2572  -5.2114  -5.1341  -5.1110  -4.5524  -4.4756  -4.3931  -4.1974
    -4.1382  -4.0834  -3.8970  -3.8841  -3.8526  -3.8398  -3.7605  -3.6315
    -3.6149  -3.5145  -3.4935  -3.4499  -3.2714  -3.2425  -3.2309  -3.1422
    -2.8143  -2.8087  -2.7785  -2.7212  -2.6799  -2.6378  -2.5762  -2.4508
    -2.4165  -2.3979  -2.3038  -2.2828  -2.2483  -2.1860  -2.1540  -2.0647
    -1.8995  -1.8004  -1.6355  -1.6174  -1.5604  -1.5345  -1.4875  -1.4644
    -1.3055  -1.2084  -1.1724  -1.0780  -1.0194  -0.8581  -0.2032   0.0175
     0.4014   0.4450   0.7411   0.7543   0.9464   0.9674   1.1655   1.4310
     1.5974   1.7278   1.7712   1.8422   1.9136   2.0193   2.0999   2.1588
     2.5133   2.5866   2.7702   2.8009

          k =-0.5000 0.0000 0.0000 ( 92628 PWs)   bands (ev):

  -103.9726-103.8843-103.6220-103.5822-103.3062-102.8214 -69.4991 -69.0341
   -68.9555 -68.8944 -64.5169 -64.4495 -64.4022 -64.2842 -64.2411 -64.1853
   -64.1637 -64.1505 -64.0253 -63.9536 -63.9160 -63.8533 -63.8074 -63.7637
   -63.5943 -63.3151 -63.2872 -63.1424 -36.0512 -35.8601 -35.8325 -35.5125
   -35.4942 -35.4621 -35.4443 -35.3904 -35.3876 -35.3615 -35.3394 -35.3290
   -13.2697 -13.0474 -12.6988 -12.5068 -12.3686 -12.1668 -12.0926 -11.9056
   -11.8263 -11.6967  -6.5306  -6.2967  -6.0235  -5.9363  -5.7736  -5.5468
    -5.3421  -4.9984  -4.8536  -4.6193  -4.2713  -4.1979  -4.1414  -4.1310
    -4.0202  -3.9174  -3.9174  -3.7573  -3.6272  -3.5123  -3.5008  -3.3493
    -3.1843  -3.0498  -2.9463  -2.8653  -2.8441  -2.7979  -2.6893  -2.5346
    -2.4982  -2.4972  -2.4221  -2.3523  -2.2195  -2.2066  -2.1283  -2.0849
    -1.9748  -1.8714  -1.8624  -1.7723  -1.6782  -1.6177  -1.5492  -1.5177
    -1.5040  -1.4850  -1.3834  -1.3538  -1.3069  -1.2227  -1.0542  -1.0399
    -0.9455  -0.8757  -0.8511  -0.6676  -0.4550  -0.4017  -0.2588   0.1068
     0.1234   0.3736   0.6214   0.7957   0.8024   0.9016   1.0059   1.0506
     1.1323   1.4701   1.5388   1.9115   1.9389   2.0105   2.3265   2.7869
     2.8375   2.8635   2.9856   3.0143

          k =-0.5000 0.5206 0.0000 ( 92572 PWs)   bands (ev):

  -103.9725-103.8844-103.6219-103.5822-103.3062-102.8214 -69.4989 -69.0339
   -68.9553 -68.8942 -64.5169 -64.4497 -64.4016 -64.2866 -64.2389 -64.1852
   -64.1638 -64.1505 -64.0247 -63.9567 -63.9132 -63.8534 -63.8074 -63.7636
   -63.5944 -63.3150 -63.2872 -63.1424 -36.0507 -35.8668 -35.8316 -35.5118
   -35.4932 -35.4691 -35.4435 -35.3946 -35.3896 -35.3605 -35.3464 -35.3284
   -13.1772 -12.9553 -12.6213 -12.4393 -12.3124 -12.1092 -12.0376 -11.8599
   -11.7889 -11.6361  -6.4477  -6.2126  -5.9265  -5.8425  -5.6849  -5.4454
    -5.2546  -4.9252  -4.8137  -4.6024  -4.3340  -4.3159  -4.1963  -4.1753
    -4.0533  -4.0031  -3.9352  -3.7524  -3.5943  -3.5597  -3.4835  -3.3422
    -3.2665  -3.2322  -3.0230  -2.9979  -2.9544  -2.8916  -2.7753  -2.7163
    -2.5794  -2.5243  -2.4785  -2.3468  -2.3260  -2.2239  -2.1885  -2.1330
    -2.0725  -2.0012  -1.9702  -1.8663  -1.7773  -1.7464  -1.7190  -1.6194
    -1.5660  -1.5107  -1.4247  -1.4066  -1.2698  -1.2309  -1.1807  -1.0956
    -0.9818  -0.8768  -0.8077  -0.7870  -0.4989  -0.2711  -0.2171   0.1083
     0.1824   0.2687   0.5292   0.7250   0.7740   0.7971   0.9660   1.0485
     1.0878   1.3751   1.5782   1.6199   1.8024   1.9823   2.3069   2.3680
     2.5344   2.5754   2.6767   3.0545

          k =-0.5000 1.0412 0.0000 ( 92572 PWs)   bands (ev):

  -103.9724-103.8844-103.6217-103.5824-103.3062-102.8214 -69.4985 -69.0335
   -68.9549 -68.8938 -64.5170 -64.4504 -64.4001 -64.2921 -64.2341 -64.1853
   -64.1640 -64.1508 -64.0229 -63.9638 -63.9074 -63.8539 -63.8074 -63.7637
   -63.5945 -63.3150 -63.2873 -63.1424 -36.0492 -35.8844 -35.8290 -35.5102
   -35.4907 -35.4873 -35.4413 -35.4129 -35.3875 -35.3648 -35.3577 -35.3267
   -12.9134 -12.6935 -12.4082 -12.2635 -12.1493 -11.9446 -11.8882 -11.7322
   -11.6891 -11.4700  -6.2395  -6.0015  -5.6873  -5.6232  -5.4487  -5.2122
    -5.0772  -4.9668  -4.7098  -4.6626  -4.5887  -4.4697  -4.3992  -4.3493
    -4.1791  -4.0165  -3.9805  -3.8867  -3.8301  -3.7960  -3.6145  -3.5620
    -3.4195  -3.3346  -3.2561  -3.2031  -3.1544  -3.0478  -2.9593  -2.8737
    -2.7839  -2.7563  -2.6598  -2.6188  -2.5783  -2.4670  -2.3796  -2.2558
    -2.2090  -2.1769  -2.0430  -1.9982  -1.9289  -1.8864  -1.8094  -1.7798
    -1.5932  -1.5794  -1.5450  -1.5132  -1.4405  -1.3128  -1.2697  -1.2080
    -1.1272  -0.9942  -0.7997  -0.7423  -0.6650  -0.4163  -0.0201   0.1022
     0.3235   0.3764   0.5575   0.6611   0.6658   0.8102   0.9007   1.0006
     1.0300   1.2114   1.3604   1.5106   1.7696   1.9064   2.0102   2.1346
     2.2170   2.3930   2.7977   3.2886

          k =-0.5000 1.5618 0.0000 ( 92398 PWs)   bands (ev):

  -103.9723-103.8845-103.6214-103.5827-103.3062-102.8214 -69.4980 -69.0330
   -68.9544 -68.8933 -64.5171 -64.4510 -64.3980 -64.2981 -64.2290 -64.1853
   -64.1642 -64.1511 -64.0200 -63.9717 -63.9013 -63.8545 -63.8074 -63.7636
   -63.5944 -63.3149 -63.2872 -63.1423 -36.0473 -35.9060 -35.8259 -35.5105
   -35.5076 -35.4872 -35.4389 -35.4350 -35.3876 -35.3844 -35.3544 -35.3247
   -12.5257 -12.3140 -12.1290 -12.0396 -11.9100 -11.7248 -11.6717 -11.5622
   -11.5567 -11.2503  -6.1197  -5.9060  -5.7549  -5.5836  -5.4317  -5.3124
    -5.2420  -5.0949  -4.9159  -4.7486  -4.6239  -4.4568  -4.4510  -4.3459
    -4.3280  -4.2114  -4.1645  -4.0796  -3.9850  -3.8755  -3.7519  -3.6990
    -3.6338  -3.5274  -3.3881  -3.3063  -3.2375  -3.1957  -3.1529  -3.0002
    -2.9108  -2.8373  -2.8020  -2.7419  -2.6792  -2.5772  -2.4307  -2.4102
    -2.3546  -2.2818  -2.2080  -2.1542  -2.0375  -2.0050  -1.9481  -1.8089
    -1.7799  -1.6987  -1.5949  -1.5589  -1.5388  -1.5038  -1.3575  -1.2306
    -1.2099  -1.1268  -1.0045  -0.8918  -0.7643  -0.6147   0.0964   0.1317
     0.2893   0.4390   0.6558   0.7734   0.8609   0.9116   0.9728   1.0419
     1.1328   1.2609   1.4080   1.4791   1.7912   2.0181   2.1819   2.2708
     2.3844   2.5174   2.8599   3.2249

          k =-0.5000 2.0823 0.0000 ( 92254 PWs)   bands (ev):

  -103.9722-103.8846-103.6212-103.5829-103.3062-102.8214 -69.4976 -69.0326
   -68.9540 -68.8929 -64.5172 -64.4516 -64.3960 -64.3024 -64.2253 -64.1853
   -64.1644 -64.1514 -64.0169 -63.9780 -63.8970 -63.8551 -63.8073 -63.7636
   -63.5943 -63.3149 -63.2871 -63.1423 -36.0458 -35.9234 -35.8234 -35.5282
   -35.5064 -35.4845 -35.4536 -35.4363 -35.4054 -35.3826 -35.3517 -35.3231
   -12.1229 -11.9542 -11.9030 -11.7979 -11.6758 -11.5667 -11.4666 -11.4394
   -11.4026 -11.0682  -6.4552  -6.3862  -6.1814  -6.1686  -5.6076  -5.3901
    -5.2594  -5.1126  -5.0586  -4.8720  -4.7550  -4.5468  -4.4791  -4.2667
    -4.1691  -4.1290  -3.9621  -3.9437  -3.8556  -3.8399  -3.7706  -3.7047
    -3.6496  -3.5806  -3.4671  -3.4393  -3.3779  -3.2099  -3.1461  -3.1073
    -2.8784  -2.8391  -2.7542  -2.7425  -2.6467  -2.6108  -2.5460  -2.5159
    -2.4313  -2.3678  -2.2824  -2.2417  -2.1837  -2.1471  -2.0666  -1.9660
    -1.8682  -1.7498  -1.7047  -1.6118  -1.5768  -1.5266  -1.3755  -1.3402
    -1.2868  -1.2198  -1.1361  -1.0648  -0.8732  -0.7931  -0.0810   0.0465
     0.3264   0.4943   0.7343   0.7700   0.9089   1.0774   1.1044   1.3486
     1.4384   1.5315   1.5933   1.7224   1.7908   1.9226   2.2960   2.4017
     2.4846   2.6537   2.7523   2.9611

          k =-0.5000-2.6029 0.0000 ( 92188 PWs)   bands (ev):

  -103.9722-103.8847-103.6211-103.5830-103.3062-102.8214 -69.4975 -69.0324
   -68.9538 -68.8927 -64.5173 -64.4518 -64.3951 -64.3039 -64.2240 -64.1853
   -64.1645 -64.1516 -64.0154 -63.9804 -63.8955 -63.8554 -63.8074 -63.7636
   -63.5941 -63.3150 -63.2869 -63.1423 -36.0452 -35.9301 -35.8224 -35.5351
   -35.5058 -35.4835 -35.4604 -35.4354 -35.4122 -35.3818 -35.3507 -35.3225
   -11.9315 -11.8560 -11.7763 -11.6049 -11.5858 -11.5554 -11.4059 -11.3799
   -11.3344 -11.0021  -6.6881  -6.6228  -6.4116  -6.4048  -5.7938  -5.4135
    -5.2854  -5.2095  -5.1190  -5.1143  -4.5618  -4.4723  -4.3991  -4.1725
    -4.1298  -4.0808  -3.9214  -3.8959  -3.8440  -3.8433  -3.7705  -3.6268
    -3.6068  -3.5384  -3.5240  -3.4548  -3.2626  -3.2209  -3.1925  -3.0800
    -2.8332  -2.7799  -2.7725  -2.7351  -2.7094  -2.6470  -2.5994  -2.4586
    -2.4215  -2.4015  -2.3243  -2.2952  -2.2195  -2.1714  -2.1492  -2.0618
    -1.8999  -1.8076  -1.6369  -1.6304  -1.5667  -1.5367  -1.4724  -1.4592
    -1.3264  -1.2115  -1.1697  -1.0618  -1.0257  -0.8546  -0.1994   0.0206
     0.4104   0.4691   0.7594   0.7601   0.9120   0.9460   1.1472   1.4490
     1.5865   1.6901   1.7225   1.8731   2.0116   2.0254   2.0986   2.2508
     2.3436   2.5499   2.7676   2.9459

     the Fermi energy is    -0.2602 ev

!    total energy              =   -9109.73068958 Ry
     total all-electron energy =     -9109.730690 Ry
     estimated scf accuracy    <          4.4E-09 Ry
     smearing contrib. (-TS)   =      -0.00018394 Ry
     internal energy E=F+TS    =   -9109.73050565 Ry

     The total energy is F=E-TS. E is the sum of the following terms:
     one-electron contribution =  -15626.99181561 Ry
     hartree contribution      =    7669.44357979 Ry
     xc contribution           =    -364.60801120 Ry
     ewald contribution        =    5480.08233890 Ry
     one-center paw contrib.   =   -6267.65659753 Ry

     convergence has been achieved in  29 iterations

     negative rho (up, down):  6.532E-02 0.000E+00

     Forces acting on atoms (cartesian axes, Ry/au):

     atom    1 type  1   force =     0.00229472    0.00000000    0.02025881
     atom    2 type  1   force =    -0.00427227    0.00000000   -0.00138026
     atom    3 type  1   force =    -0.02970179    0.00000000    0.00038926
     atom    4 type  1   force =    -0.01410991    0.00000000    0.00490719
     atom    5 type  2   force =     0.01441534    0.00000000    0.00298851
     atom    6 type  2   force =     0.00058228    0.00000000   -0.00231660
     atom    7 type  2   force =     0.00096358    0.00000000   -0.00128281
     atom    8 type  2   force =     0.01742502    0.00000000   -0.00235344
     atom    9 type  2   force =     0.00406195    0.00000000    0.00194226
     atom   10 type  2   force =     0.01314326    0.00000000   -0.02685737
     atom   11 type  3   force =     0.01881652    0.00000000   -0.00494880
     atom   12 type  3   force =     0.00077077    0.00000000    0.00024106
     atom   13 type  3   force =    -0.00027170    0.00000000   -0.00089246
     atom   14 type  3   force =    -0.01149558    0.00000000    0.00729774
     atom   15 type  3   force =     0.00448040    0.00000000    0.00014855
     atom   16 type  3   force =    -0.00488614    0.00000000   -0.00049315
     atom   17 type  3   force =    -0.00174616    0.00000000   -0.00042140
     atom   18 type  3   force =     0.01574766    0.00000000   -0.02547358
     atom   19 type  3   force =    -0.02979424    0.00000000    0.02891132
     atom   20 type  3   force =     0.00357630    0.00000000   -0.00066483

     Total force =     0.078971     Total SCF correction =     0.000264


     Computing stress (Cartesian axis) and pressure


     negative rho (up, down):  6.532E-02 0.000E+00
          total   stress  (Ry/bohr**3)                   (kbar)     P=       -5.97
  -0.00004639   0.00000000   0.00000291           -6.82        0.00        0.43
   0.00000000  -0.00002599   0.00000000            0.00       -3.82        0.00
   0.00000291   0.00000000  -0.00004941            0.43        0.00       -7.27


     BFGS Geometry Optimization
     Energy error            =      0.0E+00 Ry
     Gradient error          =      3.0E-02 Ry/Bohr

     number of scf cycles    =   1
     number of bfgs steps    =   0

     energy             new  =   -9109.7306895807 Ry

     new trust radius        =       0.0415157985 bohr
     new conv_thr            =       0.0000000100 Ry


ATOMIC_POSITIONS (angstrom)
Ta              15.3930551387        0.9149235643       12.4545607356
Ta               6.5692897276        2.7447696811       12.5912659329
Ta               2.2494381042        0.9149235643       12.4438719503
Ta              11.0779867026        2.7447696811       12.5947532611
Ni              12.8720364293        0.9149235643       11.7632710466
Ni               4.0444082556        2.7447696811       13.2729180579
Ni               4.7929766268        0.9149235643       11.7607441221
Ni              13.6219815367        2.7447696811       13.2731556197
Ni               8.8304961563        0.9149235643       12.3692333976
Ni               0.0150320178        2.7447696811       12.6533975017
Te              14.2229996496        2.7447696811       10.5326379611
Te               5.3931297260        0.9149235643       14.5006996672
Te              10.5952893417        0.9149235643       10.5188616065
Te               1.7690668859        2.7447696811       14.5203567529
Te               3.4460596154        2.7447696811       10.5351121515
Te              12.2614039011        0.9149235643       14.5005315844
Te               7.0606943918        0.9149235643       10.5189482738
Te              15.8902352102        2.7447696811       14.5031870905
Te              -0.0074675108        0.9149235643       10.8529182794
Te               8.8304504569        2.7447696811       14.1978260069



     Writing config-only to output data dir /ddn/data/physics/eamoujaes/2D-Ta2Ni3Te5/ELASTIC/OUT/ta2ni3te5.save/ :
     XML data file
     NEW-OLD atomic charge density approx. for the potential

     negative rho (up, down):  6.533E-02 0.000E+00

     total cpu time spent up to now is     1252.3 secs

     Self-consistent Calculation

     iteration #  1     ecut=    60.00 Ry     beta= 0.20
     Davidson diagonalization with overlap
     ethr =  1.00E-06,  avg # of iterations =  7.1

     negative rho (up, down):  6.532E-02 0.000E+00

     total cpu time spent up to now is     1292.2 secs

     total energy              =   -9109.73503479 Ry
     estimated scf accuracy    <       0.00350848 Ry

     iteration #  2     ecut=    60.00 Ry     beta= 0.20
     Davidson diagonalization with overlap
     c_bands:  1 eigenvalues not converged
     ethr =  1.59E-06,  avg # of iterations =  7.3

     negative rho (up, down):  6.532E-02 0.000E+00

     total cpu time spent up to now is     1330.5 secs

     total energy              =   -9109.73440960 Ry
     estimated scf accuracy    <       0.04869694 Ry

     iteration #  3     ecut=    60.00 Ry     beta= 0.20
     Davidson diagonalization with overlap
     ethr =  1.59E-06,  avg # of iterations =  4.5

     negative rho (up, down):  6.533E-02 0.000E+00

     total cpu time spent up to now is     1368.3 secs

     total energy              =   -9109.73633327 Ry
     estimated scf accuracy    <       0.00087436 Ry

     iteration #  4     ecut=    60.00 Ry     beta= 0.20
     Davidson diagonalization with overlap
     ethr =  3.97E-07,  avg # of iterations =  1.8

     negative rho (up, down):  6.533E-02 0.000E+00

     total cpu time spent up to now is     1405.5 secs

     total energy              =   -9109.73636021 Ry
     estimated scf accuracy    <       0.00050300 Ry

     iteration #  5     ecut=    60.00 Ry     beta= 0.20
     Davidson diagonalization with overlap
     ethr =  2.29E-07,  avg # of iterations =  1.2

     negative rho (up, down):  6.533E-02 0.000E+00

     total cpu time spent up to now is     1442.5 secs

     total energy              =   -9109.73634568 Ry
     estimated scf accuracy    <       0.00047465 Ry

     iteration #  6     ecut=    60.00 Ry     beta= 0.20
     Davidson diagonalization with overlap
     ethr =  2.16E-07,  avg # of iterations =  1.0

     negative rho (up, down):  6.533E-02 0.000E+00

     total cpu time spent up to now is     1479.5 secs

     total energy              =   -9109.73634955 Ry
     estimated scf accuracy    <       0.00014571 Ry

     iteration #  7     ecut=    60.00 Ry     beta= 0.20
     Davidson diagonalization with overlap
     ethr =  6.62E-08,  avg # of iterations =  2.0

     negative rho (up, down):  6.534E-02 0.000E+00

     total cpu time spent up to now is     1516.8 secs

     total energy              =   -9109.73635283 Ry
     estimated scf accuracy    <       0.00004832 Ry

     iteration #  8     ecut=    60.00 Ry     beta= 0.20
     Davidson diagonalization with overlap
     ethr =  2.20E-08,  avg # of iterations =  2.0

     negative rho (up, down):  6.534E-02 0.000E+00

     total cpu time spent up to now is     1554.5 secs

     total energy              =   -9109.73635489 Ry
     estimated scf accuracy    <       0.00002106 Ry

     iteration #  9     ecut=    60.00 Ry     beta= 0.20
     Davidson diagonalization with overlap
     ethr =  9.57E-09,  avg # of iterations =  2.0

     negative rho (up, down):  6.534E-02 0.000E+00

     total cpu time spent up to now is     1591.8 secs

     total energy              =   -9109.73635617 Ry
     estimated scf accuracy    <       0.00001042 Ry

     iteration # 10     ecut=    60.00 Ry     beta= 0.20
     Davidson diagonalization with overlap
     ethr =  4.73E-09,  avg # of iterations =  2.0

     negative rho (up, down):  6.534E-02 0.000E+00

     total cpu time spent up to now is     1629.2 secs

     total energy              =   -9109.73635732 Ry
     estimated scf accuracy    <       0.00000499 Ry

     iteration # 11     ecut=    60.00 Ry     beta= 0.20
     Davidson diagonalization with overlap
     ethr =  2.27E-09,  avg # of iterations =  2.0

     negative rho (up, down):  6.534E-02 0.000E+00

     total cpu time spent up to now is     1666.7 secs

     total energy              =   -9109.73635809 Ry
     estimated scf accuracy    <       0.00000177 Ry

     iteration # 12     ecut=    60.00 Ry     beta= 0.20
     Davidson diagonalization with overlap
     ethr =  8.06E-10,  avg # of iterations =  2.0

     negative rho (up, down):  6.534E-02 0.000E+00

     total cpu time spent up to now is     1704.2 secs

     total energy              =   -9109.73635825 Ry
     estimated scf accuracy    <       0.00000040 Ry

     iteration # 13     ecut=    60.00 Ry     beta= 0.20
     Davidson diagonalization with overlap
     ethr =  1.82E-10,  avg # of iterations =  4.0

     negative rho (up, down):  6.534E-02 0.000E+00

     total cpu time spent up to now is     1742.1 secs

     total energy              =   -9109.73635839 Ry
     estimated scf accuracy    <       0.00000031 Ry

     iteration # 14     ecut=    60.00 Ry     beta= 0.20
     Davidson diagonalization with overlap
     ethr =  1.41E-10,  avg # of iterations =  2.0

     negative rho (up, down):  6.534E-02 0.000E+00

     total cpu time spent up to now is     1779.4 secs

     total energy              =   -9109.73635845 Ry
     estimated scf accuracy    <       0.00000011 Ry

     iteration # 15     ecut=    60.00 Ry     beta= 0.20
     Davidson diagonalization with overlap
     ethr =  5.14E-11,  avg # of iterations =  2.6

     negative rho (up, down):  6.534E-02 0.000E+00

     total cpu time spent up to now is     1816.9 secs

     total energy              =   -9109.73635846 Ry
     estimated scf accuracy    <       0.00000029 Ry

     iteration # 16     ecut=    60.00 Ry     beta= 0.20
     Davidson diagonalization with overlap
     ethr =  5.14E-11,  avg # of iterations =  1.0

     negative rho (up, down):  6.534E-02 0.000E+00

     total cpu time spent up to now is     1854.6 secs

     total energy              =   -9109.73635847 Ry
     estimated scf accuracy    <       0.00000006 Ry

     iteration # 17     ecut=    60.00 Ry     beta= 0.20
     Davidson diagonalization with overlap
     ethr =  2.94E-11,  avg # of iterations =  1.1

     negative rho (up, down):  6.534E-02 0.000E+00

     total cpu time spent up to now is     1891.7 secs

     total energy              =   -9109.73635847 Ry
     estimated scf accuracy    <       0.00000002 Ry

     iteration # 18     ecut=    60.00 Ry     beta= 0.20
     Davidson diagonalization with overlap
     ethr =  9.79E-12,  avg # of iterations =  2.0

     negative rho (up, down):  6.534E-02 0.000E+00

     total cpu time spent up to now is     1928.9 secs

     End of self-consistent calculation

          k = 0.0000 0.0000 0.0000 ( 92657 PWs)   bands (ev):

  -103.9713-103.8718-103.6128-103.5684-103.3109-102.8526 -69.4862 -69.0388
   -68.9535 -68.8999 -64.5140 -64.4365 -64.4046 -64.2701 -64.2365 -64.1729
   -64.1498 -64.1406 -64.0179 -63.9399 -63.9062 -63.8410 -63.8125 -63.7669
   -63.6002 -63.3463 -63.3244 -63.1673 -36.0424 -35.8535 -35.8206 -35.5145
   -35.4999 -35.4650 -35.4433 -35.3876 -35.3856 -35.3663 -35.3400 -35.3346
   -13.2654 -13.0299 -12.7084 -12.5006 -12.3610 -12.1470 -12.0946 -11.9519
   -11.8124 -11.7234  -6.5281  -6.2811  -6.0223  -5.9035  -5.7773  -5.5872
    -5.3678  -4.9836  -4.8070  -4.5147  -4.3507  -4.2204  -4.1822  -4.1102
    -4.0360  -3.9308  -3.9036  -3.7499  -3.6401  -3.5069  -3.4839  -3.2761
    -3.1716  -3.0526  -2.9254  -2.8617  -2.8592  -2.7949  -2.7014  -2.5699
    -2.5202  -2.5104  -2.4276  -2.3534  -2.2602  -2.2085  -2.1022  -2.0392
    -1.9609  -1.8921  -1.8763  -1.8149  -1.6834  -1.6102  -1.5533  -1.5370
    -1.5064  -1.4792  -1.3805  -1.3489  -1.3306  -1.2183  -1.1012  -1.0373
    -0.8960  -0.8851  -0.8321  -0.6935  -0.4694  -0.4012  -0.2329   0.0484
     0.1799   0.3006   0.6899   0.8374   0.8423   0.9164   0.9751   1.0895
     1.1525   1.4037   1.4767   1.9378   2.0006   2.0340   2.3124   2.6705
     2.8420   2.8568   3.0272   3.1054

          k = 0.0000 0.5206 0.0000 ( 92565 PWs)   bands (ev):

  -103.9713-103.8718-103.6127-103.5684-103.3109-102.8526 -69.4861 -69.0386
   -68.9534 -68.8998 -64.5140 -64.4369 -64.4039 -64.2728 -64.2338 -64.1728
   -64.1499 -64.1407 -64.0173 -63.9432 -63.9032 -63.8411 -63.8124 -63.7669
   -63.6002 -63.3462 -63.3244 -63.1672 -36.0418 -35.8603 -35.8196 -35.5139
   -35.4989 -35.4720 -35.4424 -35.3926 -35.3868 -35.3653 -35.3470 -35.3340
   -13.1726 -12.9381 -12.6290 -12.4355 -12.3041 -12.0888 -12.0400 -11.9058
   -11.7751 -11.6635  -6.4450  -6.1970  -5.9253  -5.8109  -5.6908  -5.4839
    -5.2786  -4.9205  -4.7424  -4.5068  -4.3775  -4.3110  -4.2340  -4.1882
    -4.0879  -4.0433  -3.9284  -3.6999  -3.6265  -3.5400  -3.4791  -3.3075
    -3.2596  -3.2177  -3.0254  -2.9828  -2.9256  -2.8959  -2.8495  -2.6912
    -2.6071  -2.5268  -2.4969  -2.3776  -2.3177  -2.2069  -2.1507  -2.1300
    -2.1078  -1.9803  -1.9592  -1.8817  -1.8267  -1.7593  -1.6993  -1.6276
    -1.5714  -1.5042  -1.4380  -1.3800  -1.3430  -1.2411  -1.1894  -1.0448
    -0.9529  -0.8993  -0.8285  -0.7776  -0.4952  -0.3205  -0.1958   0.1157
     0.1546   0.2413   0.5566   0.7397   0.7715   0.8137   1.0046   1.0831
     1.1180   1.3590   1.5394   1.6309   1.8007   2.0643   2.2590   2.3863
     2.5306   2.5813   2.6975   2.9279

          k = 0.0000 1.0412 0.0000 ( 92523 PWs)   bands (ev):

  -103.9712-103.8719-103.6125-103.5686-103.3109-102.8526 -69.4857 -69.0382
   -68.9530 -68.8993 -64.5141 -64.4378 -64.4022 -64.2789 -64.2284 -64.1728
   -64.1500 -64.1410 -64.0157 -63.9504 -63.8971 -63.8416 -63.8124 -63.7669
   -63.6003 -63.3463 -63.3245 -63.1672 -36.0403 -35.8780 -35.8170 -35.5123
   -35.4963 -35.4902 -35.4403 -35.4108 -35.3847 -35.3655 -35.3623 -35.3323
   -12.9079 -12.6775 -12.4097 -12.2651 -12.1403 -11.9241 -11.8912 -11.7765
   -11.6756 -11.4991  -6.2365  -5.9856  -5.6853  -5.6073  -5.4552  -5.2370
    -5.0730  -4.9440  -4.6709  -4.6309  -4.5555  -4.4547  -4.4301  -4.3247
    -4.2353  -4.1000  -3.9989  -3.8820  -3.7819  -3.7540  -3.6200  -3.5972
    -3.4521  -3.3371  -3.2460  -3.1797  -3.0839  -3.0653  -2.9882  -2.9012
    -2.7789  -2.7133  -2.6753  -2.6323  -2.6079  -2.4360  -2.3707  -2.2597
    -2.2189  -2.1839  -2.0675  -2.0131  -1.9275  -1.8605  -1.8297  -1.7475
    -1.6446  -1.5848  -1.5650  -1.5263  -1.3650  -1.3117  -1.2477  -1.2400
    -1.1192  -0.9991  -0.8609  -0.7589  -0.6678  -0.4173  -0.0545   0.1247
     0.2895   0.4218   0.5266   0.6300   0.7004   0.7764   0.9294   0.9966
     1.1280   1.2817   1.3165   1.5299   1.7601   1.8712   2.0100   2.1546
     2.2514   2.4107   2.7891   3.2403

          k = 0.0000 1.5618 0.0000 ( 92447 PWs)   bands (ev):

  -103.9711-103.8720-103.6123-103.5688-103.3109-102.8526 -69.4852 -69.0377
   -68.9525 -68.8988 -64.5142 -64.4388 -64.4000 -64.2851 -64.2229 -64.1728
   -64.1502 -64.1413 -64.0133 -63.9581 -63.8910 -63.8423 -63.8124 -63.7669
   -63.6003 -63.3463 -63.3245 -63.1672 -36.0384 -35.8998 -35.8138 -35.5133
   -35.5099 -35.4928 -35.4379 -35.4330 -35.3879 -35.3818 -35.3593 -35.3303
   -12.5182 -12.3006 -12.1221 -12.0408 -11.9045 -11.7238 -11.6601 -11.5979
   -11.5487 -11.2816  -6.1133  -5.8873  -5.7553  -5.5896  -5.4205  -5.2988
    -5.1990  -5.1079  -4.9116  -4.7358  -4.6059  -4.4684  -4.4581  -4.3772
    -4.3560  -4.2526  -4.1604  -4.0100  -3.9808  -3.8463  -3.7610  -3.7248
    -3.7162  -3.5157  -3.3396  -3.3218  -3.2378  -3.1985  -3.0969  -2.9921
    -2.9462  -2.8744  -2.7638  -2.7519  -2.6893  -2.5524  -2.4466  -2.4102
    -2.3455  -2.2890  -2.2112  -2.1353  -2.0242  -2.0017  -1.9811  -1.8113
    -1.7819  -1.6940  -1.6047  -1.5775  -1.5527  -1.4650  -1.3676  -1.2629
    -1.1975  -1.1457  -1.0068  -0.8888  -0.7714  -0.6320   0.0938   0.1474
     0.2251   0.4017   0.7050   0.7212   0.8844   0.9281   0.9759   1.0972
     1.1436   1.2494   1.4135   1.5422   1.7098   2.0700   2.1141   2.2777
     2.5083   2.5425   2.8092   3.1564

          k = 0.0000 2.0823 0.0000 ( 92321 PWs)   bands (ev):

  -103.9710-103.8721-103.6121-103.5690-103.3109-102.8526 -69.4848 -69.0373
   -68.9521 -68.8984 -64.5144 -64.4397 -64.3980 -64.2895 -64.2190 -64.1729
   -64.1505 -64.1415 -64.0107 -63.9640 -63.8866 -63.8428 -63.8125 -63.7668
   -63.6002 -63.3462 -63.3243 -63.1673 -36.0369 -35.9174 -35.8113 -35.5311
   -35.5086 -35.4902 -35.4515 -35.4353 -35.4057 -35.3797 -35.3566 -35.3287
   -12.1106 -11.9465 -11.8978 -11.7898 -11.6687 -11.5717 -11.4592 -11.4378
   -11.4269 -11.1021  -6.4357  -6.3740  -6.1826  -6.1686  -5.6027  -5.3832
    -5.2498  -5.1005  -5.0793  -4.9049  -4.7358  -4.5474  -4.4787  -4.2638
    -4.1644  -4.1080  -3.9566  -3.9357  -3.8591  -3.8272  -3.7831  -3.7030
    -3.6409  -3.5895  -3.4873  -3.4463  -3.4013  -3.2093  -3.1462  -3.0825
    -2.8817  -2.8591  -2.7922  -2.7222  -2.6347  -2.5964  -2.5551  -2.4903
    -2.4234  -2.3580  -2.2709  -2.2455  -2.1785  -2.1514  -2.0878  -1.9585
    -1.8668  -1.7511  -1.6993  -1.6053  -1.5817  -1.5377  -1.4111  -1.3557
    -1.2629  -1.2302  -1.1449  -1.0693  -0.8916  -0.8116  -0.0873   0.0457
     0.3101   0.4626   0.7345   0.7973   0.8330   1.1138   1.1916   1.3427
     1.4652   1.5054   1.5800   1.7080   1.8010   1.9873   2.2112   2.3276
     2.5996   2.6770   2.8334   2.9587

          k = 0.0000-2.6029 0.0000 ( 92182 PWs)   bands (ev):

  -103.9709-103.8721-103.6120-103.5691-103.3109-102.8526 -69.4846 -69.0371
   -68.9519 -68.8983 -64.5144 -64.4400 -64.3971 -64.2909 -64.2176 -64.1729
   -64.1506 -64.1416 -64.0094 -63.9660 -63.8850 -63.8430 -63.8124 -63.7668
   -63.5999 -63.3462 -63.3241 -63.1672 -36.0363 -35.9241 -35.8103 -35.5379
   -35.5080 -35.4891 -35.4584 -35.4345 -35.4126 -35.3789 -35.3556 -35.3281
   -11.9138 -11.8508 -11.7708 -11.6017 -11.5789 -11.5547 -11.4004 -11.3755
   -11.3609 -11.0380  -6.6692  -6.6092  -6.4123  -6.4055  -5.7935  -5.4193
    -5.2736  -5.2210  -5.1418  -5.1056  -4.5450  -4.4690  -4.3828  -4.1968
    -4.1287  -4.0871  -3.8975  -3.8750  -3.8475  -3.8353  -3.7606  -3.6331
    -3.6066  -3.5174  -3.4988  -3.4472  -3.2704  -3.2388  -3.2370  -3.1521
    -2.8132  -2.8044  -2.7781  -2.7257  -2.6795  -2.6502  -2.5778  -2.4418
    -2.4213  -2.3890  -2.3047  -2.2797  -2.2488  -2.1799  -2.1514  -2.0549
    -1.8971  -1.7983  -1.6340  -1.6198  -1.5638  -1.5415  -1.4979  -1.4666
    -1.3116  -1.2536  -1.1726  -1.1011  -1.0232  -0.8814  -0.2027   0.0174
     0.4190   0.4407   0.7378   0.7552   0.9441   0.9675   1.1716   1.4264
     1.5987   1.7315   1.7650   1.8477   1.9152   2.0215   2.1055   2.1635
     2.5179   2.5850   2.7612   2.8036

          k =-0.5000 0.0000 0.0000 ( 92628 PWs)   bands (ev):

  -103.9713-103.8718-103.6128-103.5684-103.3109-102.8526 -69.4862 -69.0388
   -68.9535 -68.8999 -64.5140 -64.4365 -64.4045 -64.2700 -64.2365 -64.1729
   -64.1498 -64.1407 -64.0178 -63.9399 -63.9062 -63.8410 -63.8124 -63.7669
   -63.6002 -63.3463 -63.3244 -63.1672 -36.0424 -35.8535 -35.8206 -35.5145
   -35.4999 -35.4650 -35.4433 -35.3876 -35.3856 -35.3663 -35.3400 -35.3346
   -13.2628 -13.0391 -12.6937 -12.4998 -12.3652 -12.1715 -12.0932 -11.9186
   -11.8252 -11.7254  -6.5253  -6.2880  -6.0223  -5.9313  -5.7698  -5.5451
    -5.3423  -4.9915  -4.8484  -4.6181  -4.2738  -4.1821  -4.1424  -4.1256
    -4.0150  -3.9277  -3.9037  -3.7498  -3.6448  -3.5128  -3.4838  -3.3650
    -3.1722  -3.0523  -2.9526  -2.8585  -2.8456  -2.8002  -2.6796  -2.5276
    -2.5127  -2.4913  -2.4293  -2.3424  -2.2632  -2.2015  -2.1346  -2.0881
    -1.9746  -1.9016  -1.8581  -1.7708  -1.6711  -1.6198  -1.5533  -1.5271
    -1.4969  -1.4809  -1.3942  -1.3483  -1.3244  -1.2159  -1.0563  -1.0419
    -0.9384  -0.8834  -0.8607  -0.6665  -0.4591  -0.4022  -0.2576   0.1232
     0.1254   0.3676   0.6194   0.7909   0.8002   0.9012   1.0037   1.0492
     1.1254   1.4740   1.5315   1.9217   1.9444   2.0282   2.3482   2.8004
     2.8563   2.8724   2.9847   3.0216

          k =-0.5000 0.5206 0.0000 ( 92572 PWs)   bands (ev):

  -103.9713-103.8718-103.6127-103.5684-103.3109-102.8526 -69.4861 -69.0386
   -68.9534 -68.8998 -64.5140 -64.4368 -64.4039 -64.2728 -64.2339 -64.1728
   -64.1498 -64.1407 -64.0173 -63.9432 -63.9032 -63.8411 -63.8124 -63.7669
   -63.6002 -63.3462 -63.3244 -63.1672 -36.0418 -35.8603 -35.8196 -35.5139
   -35.4989 -35.4720 -35.4424 -35.3926 -35.3868 -35.3653 -35.3470 -35.3340
   -13.1701 -12.9471 -12.6156 -12.4325 -12.3085 -12.1141 -12.0385 -11.8735
   -11.7873 -11.6653  -6.4422  -6.2036  -5.9251  -5.8373  -5.6817  -5.4434
    -5.2545  -4.9160  -4.8098  -4.5992  -4.3259  -4.3093  -4.1928  -4.1687
    -4.0535  -3.9985  -3.9331  -3.7524  -3.5974  -3.5655  -3.4859  -3.3413
    -3.2536  -3.2376  -3.0353  -2.9902  -2.9570  -2.9039  -2.7769  -2.7125
    -2.5767  -2.5215  -2.4816  -2.3654  -2.3199  -2.2296  -2.1925  -2.1383
    -2.0776  -2.0086  -1.9756  -1.8613  -1.7772  -1.7481  -1.7273  -1.6257
    -1.5725  -1.5027  -1.4211  -1.4110  -1.2798  -1.2371  -1.1775  -1.0953
    -0.9842  -0.8883  -0.8138  -0.7890  -0.5026  -0.2684  -0.2159   0.1104
     0.1860   0.2736   0.5267   0.7265   0.7660   0.8033   0.9660   1.0419
     1.0903   1.3778   1.5757   1.6306   1.8061   1.9886   2.3139   2.3929
     2.5387   2.5822   2.6734   3.0695

          k =-0.5000 1.0412 0.0000 ( 92572 PWs)   bands (ev):

  -103.9712-103.8719-103.6125-103.5686-103.3109-102.8526 -69.4857 -69.0382
   -68.9530 -68.8993 -64.5142 -64.4378 -64.4022 -64.2789 -64.2284 -64.1729
   -64.1501 -64.1410 -64.0157 -63.9504 -63.8972 -63.8416 -63.8124 -63.7669
   -63.6003 -63.3463 -63.3245 -63.1672 -36.0403 -35.8780 -35.8170 -35.5123
   -35.4963 -35.4902 -35.4403 -35.4108 -35.3847 -35.3655 -35.3623 -35.3323
   -12.9058 -12.6854 -12.4009 -12.2581 -12.1436 -11.9484 -11.8911 -11.7473
   -11.6863 -11.4999  -6.2331  -5.9919  -5.6850  -5.6183  -5.4463  -5.2084
    -5.0731  -4.9532  -4.7029  -4.6558  -4.5757  -4.4693  -4.3929  -4.3439
    -4.1737  -4.0185  -3.9841  -3.8926  -3.8296  -3.7924  -3.6130  -3.5781
    -3.4440  -3.3383  -3.2566  -3.2087  -3.1592  -3.0419  -2.9625  -2.8716
    -2.7745  -2.7622  -2.6566  -2.6226  -2.5851  -2.4675  -2.3748  -2.2553
    -2.2099  -2.1844  -2.0517  -2.0028  -1.9206  -1.8859  -1.8096  -1.7795
    -1.6032  -1.5807  -1.5508  -1.5059  -1.4566  -1.3144  -1.2694  -1.2100
    -1.1318  -1.0077  -0.8062  -0.7464  -0.6672  -0.4223  -0.0148   0.1042
     0.3217   0.3811   0.5518   0.6563   0.6733   0.8173   0.9040   1.0015
     1.0318   1.2190   1.3570   1.5091   1.7754   1.9212   2.0098   2.1399
     2.2195   2.3865   2.8232   3.3018

          k =-0.5000 1.5618 0.0000 ( 92398 PWs)   bands (ev):

  -103.9711-103.8720-103.6123-103.5688-103.3109-102.8526 -69.4852 -69.0377
   -68.9525 -68.8988 -64.5142 -64.4388 -64.3999 -64.2851 -64.2228 -64.1728
   -64.1503 -64.1412 -64.0132 -63.9581 -63.8909 -63.8422 -63.8124 -63.7668
   -63.6003 -63.3462 -63.3245 -63.1672 -36.0384 -35.8998 -35.8138 -35.5133
   -35.5099 -35.4928 -35.4379 -35.4330 -35.3879 -35.3818 -35.3593 -35.3303
   -12.5168 -12.3060 -12.1210 -12.0338 -11.9040 -11.7216 -11.6819 -11.5747
   -11.5568 -11.2816  -6.1104  -5.8971  -5.7411  -5.5761  -5.4284  -5.3069
    -5.2384  -5.0880  -4.9096  -4.7426  -4.6247  -4.4707  -4.4534  -4.3408
    -4.3255  -4.2061  -4.1690  -4.0770  -3.9852  -3.8776  -3.7672  -3.7058
    -3.6371  -3.5236  -3.3886  -3.3094  -3.2389  -3.1985  -3.1485  -2.9992
    -2.9080  -2.8352  -2.8009  -2.7436  -2.6916  -2.5736  -2.4257  -2.4120
    -2.3545  -2.2845  -2.2167  -2.1500  -2.0320  -1.9999  -1.9488  -1.8101
    -1.7792  -1.6913  -1.6054  -1.5741  -1.5414  -1.5105  -1.3569  -1.2403
    -1.2148  -1.1345  -1.0108  -0.8950  -0.7746  -0.6328   0.1011   0.1383
     0.2893   0.4419   0.6526   0.7762   0.8595   0.9148   0.9698   1.0460
     1.1365   1.2614   1.4101   1.4736   1.7911   2.0258   2.1904   2.2798
     2.3886   2.5111   2.8863   3.2394

          k =-0.5000 2.0823 0.0000 ( 92254 PWs)   bands (ev):

  -103.9710-103.8721-103.6121-103.5690-103.3109-102.8526 -69.4848 -69.0373
   -68.9521 -68.8984 -64.5143 -64.4396 -64.3980 -64.2895 -64.2190 -64.1728
   -64.1504 -64.1415 -64.0106 -63.9639 -63.8866 -63.8428 -63.8123 -63.7668
   -63.6001 -63.3462 -63.3243 -63.1671 -36.0369 -35.9174 -35.8113 -35.5311
   -35.5086 -35.4902 -35.4515 -35.4353 -35.4057 -35.3797 -35.3566 -35.3287
   -12.1103 -11.9474 -11.8976 -11.7903 -11.6684 -11.5679 -11.4673 -11.4351
   -11.4247 -11.1021  -6.4421  -6.3786  -6.1733  -6.1569  -5.6107  -5.3856
    -5.2565  -5.1249  -5.0645  -4.8766  -4.7540  -4.5430  -4.4705  -4.2679
    -4.1612  -4.1289  -3.9558  -3.9429  -3.8534  -3.8297  -3.7705  -3.7116
    -3.6486  -3.5804  -3.4663  -3.4415  -3.3827  -3.2066  -3.1456  -3.1113
    -2.8783  -2.8391  -2.7569  -2.7442  -2.6588  -2.6056  -2.5482  -2.5148
    -2.4303  -2.3655  -2.2819  -2.2427  -2.1770  -2.1408  -2.0638  -1.9605
    -1.8690  -1.7476  -1.7039  -1.6120  -1.5828  -1.5454  -1.3793  -1.3533
    -1.2961  -1.2282  -1.1383  -1.0757  -0.8886  -0.8198  -0.0780   0.0465
     0.3302   0.5042   0.7323   0.7704   0.9077   1.0767   1.1110   1.3453
     1.4364   1.5308   1.5841   1.7276   1.7881   1.9269   2.3107   2.4116
     2.4956   2.6544   2.7470   2.9689

          k =-0.5000-2.6029 0.0000 ( 92188 PWs)   bands (ev):

  -103.9709-103.8721-103.6120-103.5691-103.3109-102.8526 -69.4846 -69.0371
   -68.9519 -68.8983 -64.5144 -64.4399 -64.3971 -64.2909 -64.2176 -64.1729
   -64.1505 -64.1416 -64.0094 -63.9661 -63.8851 -63.8431 -63.8124 -63.7669
   -63.6000 -63.3462 -63.3241 -63.1672 -36.0363 -35.9241 -35.8103 -35.5379
   -35.5080 -35.4891 -35.4584 -35.4345 -35.4126 -35.3789 -35.3556 -35.3281
   -11.9138 -11.8508 -11.7708 -11.6018 -11.5789 -11.5543 -11.4015 -11.3756
   -11.3600 -11.0380  -6.6765  -6.6153  -6.4037  -6.3931  -5.7987  -5.4055
    -5.3047  -5.2194  -5.1270  -5.1085  -4.5541  -4.4658  -4.3884  -4.1720
    -4.1203  -4.0861  -3.9112  -3.8964  -3.8385  -3.8384  -3.7689  -3.6270
    -3.6015  -3.5489  -3.5254  -3.4511  -3.2592  -3.2184  -3.1998  -3.0837
    -2.8307  -2.7767  -2.7735  -2.7508  -2.7073  -2.6571  -2.5964  -2.4487
    -2.4265  -2.3929  -2.3272  -2.2916  -2.2212  -2.1653  -2.1433  -2.0537
    -1.8984  -1.8049  -1.6354  -1.6315  -1.5703  -1.5449  -1.4836  -1.4596
    -1.3299  -1.2571  -1.1713  -1.0925  -1.0231  -0.8772  -0.1989   0.0202
     0.4279   0.4639   0.7604   0.7605   0.9045   0.9466   1.1556   1.4473
     1.5828   1.6923   1.7175   1.8742   2.0153   2.0288   2.1087   2.2650
     2.3389   2.5489   2.7568   2.9507

     the Fermi energy is    -0.2584 ev

!    total energy              =   -9109.73635847 Ry
     total all-electron energy =     -9109.736358 Ry
     estimated scf accuracy    <          7.6E-09 Ry
     smearing contrib. (-TS)   =      -0.00019069 Ry
     internal energy E=F+TS    =   -9109.73616778 Ry

     The total energy is F=E-TS. E is the sum of the following terms:
     one-electron contribution =  -15627.38249599 Ry
     hartree contribution      =    7669.64229043 Ry
     xc contribution           =    -364.61358952 Ry
     ewald contribution        =    5480.27767455 Ry
     one-center paw contrib.   =   -6267.66004725 Ry

     convergence has been achieved in  18 iterations

     negative rho (up, down):  6.534E-02 0.000E+00

     Forces acting on atoms (cartesian axes, Ry/au):

     atom    1 type  1   force =     0.00135204    0.00000000    0.01207522
     atom    2 type  1   force =    -0.00411251    0.00000000   -0.00122821
     atom    3 type  1   force =    -0.02290629    0.00000000    0.00107078
     atom    4 type  1   force =    -0.00916882    0.00000000    0.00351498
     atom    5 type  2   force =     0.01252938    0.00000000    0.00200240
     atom    6 type  2   force =    -0.00177665    0.00000000   -0.00168455
     atom    7 type  2   force =    -0.00064056    0.00000000   -0.00054713
     atom    8 type  2   force =     0.01313818    0.00000000   -0.00183322
     atom    9 type  2   force =     0.00347958    0.00000000    0.00136653
     atom   10 type  2   force =     0.01214576    0.00000000   -0.02083360
     atom   11 type  3   force =     0.01775546    0.00000000   -0.00328610
     atom   12 type  3   force =     0.00042392    0.00000000    0.00008244
     atom   13 type  3   force =     0.00131242    0.00000000    0.00020355
     atom   14 type  3   force =    -0.00980546    0.00000000    0.00499589
     atom   15 type  3   force =     0.00280756    0.00000000    0.00143139
     atom   16 type  3   force =    -0.00367918    0.00000000   -0.00204618
     atom   17 type  3   force =    -0.00125814    0.00000000   -0.00021195
     atom   18 type  3   force =     0.01768968    0.00000000   -0.01777204
     atom   19 type  3   force =    -0.03079925    0.00000000    0.02228027
     atom   20 type  3   force =     0.00151288    0.00000000    0.00041954

     Total force =     0.065438     Total SCF correction =     0.000610


     Computing stress (Cartesian axis) and pressure


     negative rho (up, down):  6.534E-02 0.000E+00
          total   stress  (Ry/bohr**3)                   (kbar)     P=       -5.88
  -0.00004789   0.00000000   0.00000371           -7.05        0.00        0.55
   0.00000000  -0.00002494   0.00000000            0.00       -3.67        0.00
   0.00000371   0.00000000  -0.00004701            0.55        0.00       -6.91

     Energy error            =      5.7E-03 Ry
     Gradient error          =      3.1E-02 Ry/Bohr

     number of scf cycles    =   2
     number of bfgs steps    =   1

     energy             old  =   -9109.7306895807 Ry
     energy             new  =   -9109.7363584730 Ry

     CASE: energy            _new < energy            _old


     WARNING: bfgs curvature condition failed, Theta= 0.981
     new trust radius        =       0.0456673783 bohr
     new conv_thr            =       0.0000000031 Ry


ATOMIC_POSITIONS (angstrom)
Ta              15.3939749011        0.9149235643       12.4627581663
Ta               6.5666882031        2.7447696811       12.5904814271
Ta               2.2345200892        0.9149235643       12.4444969341
Ta              11.0718545136        2.7447696811       12.5970677488
Ni              12.8800637138        0.9149235643       11.7646035328
Ni               4.0434602315        2.7447696811       13.2718113916
Ni               4.7926894125        0.9149235643       11.7603462679
Ni              13.6305661369        2.7447696811       13.2719634206
Ni               8.8327296865        0.9149235643       12.3701357048
Ni               0.0227533545        2.7447696811       12.6398407142
Te              14.2342584364        2.7447696811       10.5304480223
Te               5.3934218215        0.9149235643       14.5007630771
Te              10.5960011286        0.9149235643       10.5189104072
Te               1.7627692407        2.7447696811       14.5236697684
Te               3.4479489146        2.7447696811       10.5359206806
Te              12.2589994252        0.9149235643       14.4993554439
Te               7.0598666978        0.9149235643       10.5187996213
Te              15.9012350477        2.7447696811       14.4914368646
Te              -0.0267912856        0.9149235643       10.8674301316
Te               8.8315526937        2.7447696811       14.1980116748



     Writing config-only to output data dir /ddn/data/physics/eamoujaes/2D-Ta2Ni3Te5/ELASTIC/OUT/ta2ni3te5.save/ :
     XML data file
     NEW-OLD atomic charge density approx. for the potential

     negative rho (up, down):  6.530E-02 0.000E+00

     total cpu time spent up to now is     2026.6 secs

     Self-consistent Calculation

     iteration #  1     ecut=    60.00 Ry     beta= 0.20
     Davidson diagonalization with overlap
     ethr =  1.00E-06,  avg # of iterations =  7.0

     negative rho (up, down):  6.530E-02 0.000E+00

     total cpu time spent up to now is     2066.5 secs

     total energy              =   -9109.73982082 Ry
     estimated scf accuracy    <       0.00343043 Ry

     iteration #  2     ecut=    60.00 Ry     beta= 0.20
     Davidson diagonalization with overlap
     ethr =  1.56E-06,  avg # of iterations =  6.7

     negative rho (up, down):  6.530E-02 0.000E+00

     total cpu time spent up to now is     2104.6 secs

     total energy              =   -9109.73923476 Ry
     estimated scf accuracy    <       0.04650976 Ry

     iteration #  3     ecut=    60.00 Ry     beta= 0.20
     Davidson diagonalization with overlap
     ethr =  1.56E-06,  avg # of iterations =  4.4

     negative rho (up, down):  6.531E-02 0.000E+00

     total cpu time spent up to now is     2142.3 secs

     total energy              =   -9109.74110107 Ry
     estimated scf accuracy    <       0.00077471 Ry

     iteration #  4     ecut=    60.00 Ry     beta= 0.20
     Davidson diagonalization with overlap
     ethr =  3.52E-07,  avg # of iterations =  1.9

     negative rho (up, down):  6.531E-02 0.000E+00

     total cpu time spent up to now is     2179.7 secs

     total energy              =   -9109.74112458 Ry
     estimated scf accuracy    <       0.00042248 Ry

     iteration #  5     ecut=    60.00 Ry     beta= 0.20
     Davidson diagonalization with overlap
     ethr =  1.92E-07,  avg # of iterations =  1.3

     negative rho (up, down):  6.531E-02 0.000E+00

     total cpu time spent up to now is     2216.6 secs

     total energy              =   -9109.74110963 Ry
     estimated scf accuracy    <       0.00043435 Ry

     iteration #  6     ecut=    60.00 Ry     beta= 0.20
     Davidson diagonalization with overlap
     ethr =  1.92E-07,  avg # of iterations =  1.0

     negative rho (up, down):  6.531E-02 0.000E+00

     total cpu time spent up to now is     2254.2 secs

     total energy              =   -9109.74111337 Ry
     estimated scf accuracy    <       0.00013063 Ry

     iteration #  7     ecut=    60.00 Ry     beta= 0.20
     Davidson diagonalization with overlap
     ethr =  5.94E-08,  avg # of iterations =  2.0

     negative rho (up, down):  6.532E-02 0.000E+00

     total cpu time spent up to now is     2291.6 secs

     total energy              =   -9109.74111585 Ry
     estimated scf accuracy    <       0.00004400 Ry

     iteration #  8     ecut=    60.00 Ry     beta= 0.20
     Davidson diagonalization with overlap
     ethr =  2.00E-08,  avg # of iterations =  2.0

     negative rho (up, down):  6.532E-02 0.000E+00

     total cpu time spent up to now is     2329.0 secs

     total energy              =   -9109.74111704 Ry
     estimated scf accuracy    <       0.00002870 Ry

     iteration #  9     ecut=    60.00 Ry     beta= 0.20
     Davidson diagonalization with overlap
     ethr =  1.30E-08,  avg # of iterations =  1.1

     negative rho (up, down):  6.532E-02 0.000E+00

     total cpu time spent up to now is     2366.3 secs

     total energy              =   -9109.74111877 Ry
     estimated scf accuracy    <       0.00001372 Ry

     iteration # 10     ecut=    60.00 Ry     beta= 0.20
     Davidson diagonalization with overlap
     ethr =  6.24E-09,  avg # of iterations =  2.0

     negative rho (up, down):  6.532E-02 0.000E+00

     total cpu time spent up to now is     2403.8 secs

     total energy              =   -9109.74112011 Ry
     estimated scf accuracy    <       0.00000382 Ry

     iteration # 11     ecut=    60.00 Ry     beta= 0.20
     Davidson diagonalization with overlap
     ethr =  1.73E-09,  avg # of iterations =  2.1

     negative rho (up, down):  6.532E-02 0.000E+00

     total cpu time spent up to now is     2441.2 secs

     total energy              =   -9109.74112081 Ry
     estimated scf accuracy    <       0.00000147 Ry

     iteration # 12     ecut=    60.00 Ry     beta= 0.20
     Davidson diagonalization with overlap
     ethr =  6.67E-10,  avg # of iterations =  2.1

     negative rho (up, down):  6.532E-02 0.000E+00

     total cpu time spent up to now is     2478.7 secs

     total energy              =   -9109.74112095 Ry
     estimated scf accuracy    <       0.00000044 Ry

     iteration # 13     ecut=    60.00 Ry     beta= 0.20
     Davidson diagonalization with overlap
     ethr =  2.02E-10,  avg # of iterations =  2.0

     negative rho (up, down):  6.532E-02 0.000E+00

     total cpu time spent up to now is     2516.6 secs

     total energy              =   -9109.74112111 Ry
     estimated scf accuracy    <       0.00000026 Ry

     iteration # 14     ecut=    60.00 Ry     beta= 0.20
     Davidson diagonalization with overlap
     ethr =  1.17E-10,  avg # of iterations =  2.0

     negative rho (up, down):  6.532E-02 0.000E+00

     total cpu time spent up to now is     2554.1 secs

     total energy              =   -9109.74112115 Ry
     estimated scf accuracy    <       0.00000011 Ry

     iteration # 15     ecut=    60.00 Ry     beta= 0.20
     Davidson diagonalization with overlap
     ethr =  5.21E-11,  avg # of iterations =  2.0

     negative rho (up, down):  6.532E-02 0.000E+00

     total cpu time spent up to now is     2592.1 secs

     total energy              =   -9109.74112116 Ry
     estimated scf accuracy    <       0.00000025 Ry

     iteration # 16     ecut=    60.00 Ry     beta= 0.20
     Davidson diagonalization with overlap
     ethr =  5.21E-11,  avg # of iterations =  1.0

     negative rho (up, down):  6.532E-02 0.000E+00

     total cpu time spent up to now is     2629.1 secs

     total energy              =   -9109.74112118 Ry
     estimated scf accuracy    <       0.00000008 Ry

     iteration # 17     ecut=    60.00 Ry     beta= 0.20
     Davidson diagonalization with overlap
     ethr =  3.76E-11,  avg # of iterations =  1.0

     negative rho (up, down):  6.532E-02 0.000E+00

     total cpu time spent up to now is     2666.5 secs

     total energy              =   -9109.74112118 Ry
     estimated scf accuracy    <       0.00000001 Ry

     iteration # 18     ecut=    60.00 Ry     beta= 0.20
     Davidson diagonalization with overlap
     ethr =  6.02E-12,  avg # of iterations =  4.4

     negative rho (up, down):  6.532E-02 0.000E+00

     total cpu time spent up to now is     2704.3 secs

     total energy              =   -9109.74112118 Ry
     estimated scf accuracy    <          6.6E-09 Ry

     iteration # 19     ecut=    60.00 Ry     beta= 0.20
     Davidson diagonalization with overlap
     ethr =  3.01E-12,  avg # of iterations =  2.0

     negative rho (up, down):  6.532E-02 0.000E+00

     total cpu time spent up to now is     2741.6 secs

     total energy              =   -9109.74112118 Ry
     estimated scf accuracy    <          6.0E-09 Ry

     iteration # 20     ecut=    60.00 Ry     beta= 0.20
     Davidson diagonalization with overlap
     ethr =  2.73E-12,  avg # of iterations =  1.2

     negative rho (up, down):  6.532E-02 0.000E+00

     total cpu time spent up to now is     2779.0 secs

     End of self-consistent calculation

          k = 0.0000 0.0000 0.0000 ( 92657 PWs)   bands (ev):

  -103.9697-103.8615-103.6054-103.5572-103.3144-102.8832 -69.4750 -69.0426
   -68.9527 -68.9072 -64.5107 -64.4262 -64.4068 -64.2578 -64.2319 -64.1625
   -64.1384 -64.1326 -64.0127 -63.9290 -63.8982 -63.8310 -63.8162 -63.7691
   -63.6047 -63.3777 -63.3598 -63.1919 -36.0347 -35.8479 -35.8104 -35.5166
   -35.5043 -35.4676 -35.4430 -35.3860 -35.3845 -35.3730 -35.3423 -35.3421
   -13.2598 -13.0225 -12.7070 -12.4943 -12.3572 -12.1495 -12.0942 -11.9643
   -11.8125 -11.7482  -6.5237  -6.2739  -6.0212  -5.8992  -5.7741  -5.5886
    -5.3677  -4.9780  -4.8028  -4.5099  -4.3540  -4.2272  -4.1699  -4.1057
    -4.0356  -3.9327  -3.8928  -3.7454  -3.6566  -3.5086  -3.4707  -3.2902
    -3.1615  -3.0544  -2.9298  -2.8639  -2.8609  -2.7975  -2.6969  -2.5651
    -2.5403  -2.5021  -2.4315  -2.3467  -2.2917  -2.2054  -2.1029  -2.0489
    -1.9613  -1.9256  -1.8763  -1.8093  -1.6776  -1.6120  -1.5553  -1.5433
    -1.5053  -1.4761  -1.3884  -1.3458  -1.3434  -1.2116  -1.0955  -1.0407
    -0.8990  -0.8942  -0.8373  -0.6925  -0.4724  -0.4023  -0.2334   0.0641
     0.1845   0.2907   0.6871   0.8317   0.8468   0.9127   0.9737   1.0788
     1.1529   1.4009   1.4792   1.9413   2.0037   2.0495   2.3378   2.6789
     2.8522   2.8727   3.0348   3.1051

          k = 0.0000 0.5206 0.0000 ( 92565 PWs)   bands (ev):

  -103.9696-103.8615-103.6054-103.5572-103.3144-102.8832 -69.4749 -69.0425
   -68.9525 -68.9070 -64.5107 -64.4268 -64.4058 -64.2610 -64.2287 -64.1625
   -64.1384 -64.1327 -64.0121 -63.9323 -63.8951 -63.8311 -63.8162 -63.7691
   -63.6046 -63.3776 -63.3598 -63.1918 -36.0341 -35.8548 -35.8094 -35.5160
   -35.5033 -35.4746 -35.4422 -35.3915 -35.3852 -35.3720 -35.3492 -35.3415
   -13.1669 -12.9308 -12.6270 -12.4294 -12.2999 -12.0913 -12.0397 -11.9184
   -11.7749 -11.6889  -6.4405  -6.1895  -5.9240  -5.8061  -5.6883  -5.4851
    -5.2785  -4.9133  -4.7378  -4.5007  -4.3789  -4.3026  -4.2353  -4.1830
    -4.0895  -4.0403  -3.9245  -3.6990  -3.6346  -3.5407  -3.4796  -3.3066
    -3.2548  -3.2202  -3.0395  -2.9753  -2.9278  -2.9149  -2.8482  -2.6892
    -2.6053  -2.5263  -2.4976  -2.3937  -2.3141  -2.2114  -2.1560  -2.1299
    -2.1182  -1.9838  -1.9634  -1.8846  -1.8248  -1.7644  -1.7087  -1.6329
    -1.5733  -1.5018  -1.4370  -1.3780  -1.3506  -1.2468  -1.1851  -1.0481
    -0.9564  -0.9116  -0.8257  -0.7876  -0.4982  -0.3200  -0.1921   0.1250
     0.1554   0.2391   0.5567   0.7369   0.7635   0.8223   1.0034   1.0764
     1.1192   1.3599   1.5413   1.6382   1.8006   2.0662   2.2696   2.4111
     2.5345   2.5853   2.6948   2.9403

          k = 0.0000 1.0412 0.0000 ( 92523 PWs)   bands (ev):

  -103.9695-103.8616-103.6052-103.5574-103.3144-102.8832 -69.4745 -69.0421
   -68.9521 -68.9066 -64.5108 -64.4283 -64.4036 -64.2677 -64.2225 -64.1625
   -64.1386 -64.1329 -64.0107 -63.9396 -63.8887 -63.8316 -63.8162 -63.7691
   -63.6047 -63.3776 -63.3598 -63.1918 -36.0326 -35.8726 -35.8068 -35.5144
   -35.5007 -35.4927 -35.4401 -35.4098 -35.3830 -35.3698 -35.3670 -35.3398
   -12.9018 -12.6703 -12.4060 -12.2602 -12.1351 -11.9250 -11.8932 -11.7895
   -11.6747 -11.5255  -6.2314  -5.9775  -5.6834  -5.6026  -5.4533  -5.2366
    -5.0722  -4.9306  -4.6634  -4.6226  -4.5471  -4.4556  -4.4295  -4.3178
    -4.2327  -4.1068  -4.0026  -3.8764  -3.7835  -3.7546  -3.6309  -3.5971
    -3.4789  -3.3394  -3.2466  -3.1851  -3.0839  -3.0651  -2.9919  -2.8988
    -2.7705  -2.7223  -2.6722  -2.6342  -2.6156  -2.4319  -2.3694  -2.2618
    -2.2178  -2.1911  -2.0850  -2.0111  -1.9239  -1.8578  -1.8308  -1.7517
    -1.6559  -1.6013  -1.5624  -1.5167  -1.3734  -1.3136  -1.2499  -1.2441
    -1.1191  -1.0165  -0.8617  -0.7655  -0.6697  -0.4240  -0.0522   0.1320
     0.2914   0.4198   0.5217   0.6276   0.6972   0.7841   0.9351   1.0020
     1.1276   1.2863   1.3151   1.5253   1.7600   1.8744   2.0261   2.1529
     2.2504   2.4071   2.8151   3.2561

          k = 0.0000 1.5618 0.0000 ( 92447 PWs)   bands (ev):

  -103.9694-103.8616-103.6050-103.5576-103.3144-102.8832 -69.4740 -69.0416
   -68.9516 -68.9061 -64.5109 -64.4298 -64.4011 -64.2743 -64.2167 -64.1624
   -64.1388 -64.1333 -64.0085 -63.9472 -63.8825 -63.8323 -63.8161 -63.7691
   -63.6048 -63.3777 -63.3599 -63.1918 -36.0307 -35.8946 -35.8036 -35.5157
   -35.5121 -35.4972 -35.4376 -35.4320 -35.3899 -35.3802 -35.3661 -35.3379
   -12.5112 -12.2936 -12.1162 -12.0365 -11.8998 -11.7222 -11.6655 -11.6107
   -11.5472 -11.3093  -6.1061  -5.8794  -5.7451  -5.5844  -5.4171  -5.2948
    -5.1930  -5.1051  -4.9066  -4.7298  -4.6130  -4.4721  -4.4706  -4.3737
    -4.3503  -4.2483  -4.1634  -4.0062  -3.9777  -3.8484  -3.7754  -3.7374
    -3.7136  -3.5117  -3.3438  -3.3229  -3.2423  -3.1974  -3.0939  -2.9930
    -2.9434  -2.8739  -2.7637  -2.7540  -2.6977  -2.5514  -2.4485  -2.4076
    -2.3459  -2.2922  -2.2213  -2.1316  -2.0250  -1.9950  -1.9815  -1.8153
    -1.7814  -1.6891  -1.6273  -1.5784  -1.5573  -1.4671  -1.3721  -1.2680
    -1.2100  -1.1463  -1.0116  -0.8921  -0.7829  -0.6507   0.0962   0.1526
     0.2266   0.4040   0.7050   0.7159   0.8858   0.9314   0.9758   1.0944
     1.1486   1.2508   1.4142   1.5356   1.7061   2.0758   2.1183   2.2901
     2.5048   2.5426   2.8349   3.1711

          k = 0.0000 2.0823 0.0000 ( 92321 PWs)   bands (ev):

  -103.9694-103.8617-103.6048-103.5578-103.3144-102.8832 -69.4736 -69.0411
[...]
     1.1446   1.1715   1.2608   1.5376   1.7996   1.8445   1.8556   2.1111
     2.1711   2.3418   3.4932   3.5579

          k = 0.0000 1.5618 0.0000 ( 92447 PWs)   bands (ev):

  -103.5362-103.5350-103.5231-103.5231-103.2156-103.2119 -69.2076 -69.2064
   -69.2061 -69.2047 -64.1015 -64.1007 -64.0904 -64.0902 -63.9676 -63.9664
   -63.9337 -63.9330 -63.7985 -63.7977 -63.7729 -63.7728 -63.7021 -63.6984
   -63.6916 -63.6877 -63.5080 -63.5047 -35.6571 -35.6566 -35.6559 -35.6544
   -35.6538 -35.6532 -35.6520 -35.6503 -35.6218 -35.6207 -35.6204 -35.6199
   -12.3737 -12.2376 -12.1019 -11.9158 -11.9076 -11.8242 -11.6800 -11.6761
   -11.6261 -11.5852  -5.9035  -5.8136  -5.6040  -5.5826  -5.3308  -5.2141
    -5.0786  -5.0564  -4.9209  -4.7293  -4.5052  -4.4926  -4.4605  -4.3809
    -4.2646  -4.2114  -4.0608  -4.0558  -3.9161  -3.8307  -3.8132  -3.7375
    -3.6900  -3.3619  -3.3480  -3.3113  -3.2679  -3.1394  -3.1323  -3.1175
    -2.8388  -2.8025  -2.8007  -2.6961  -2.6544  -2.5812  -2.4119  -2.2862
    -2.2462  -2.2314  -2.1111  -2.0707  -1.9790  -1.7767  -1.7669  -1.7427
    -1.6882  -1.6481  -1.5972  -1.5631  -1.5309  -1.4163  -1.3510  -1.3101
    -1.1143  -1.1082  -1.0495  -0.9090  -0.9005  -0.7558   0.1625   0.2104
     0.3981   0.4846   0.6626   0.7388   0.8948   0.9404   0.9578   0.9652
     1.1969   1.2534   1.2883   1.5784   1.6603   1.9130   2.0054   2.3082
     2.4269   2.5311   3.3455   3.4142

          k = 0.0000 2.0823 0.0000 ( 92321 PWs)   bands (ev):

  -103.5356-103.5344-103.5238-103.5237-103.2156-103.2119 -69.2072 -69.2060
   -69.2057 -69.2043 -64.1016 -64.1008 -64.0908 -64.0906 -63.9615 -63.9602
   -63.9417 -63.9411 -63.7924 -63.7916 -63.7764 -63.7762 -63.7022 -63.6985
   -63.6915 -63.6876 -63.5079 -63.5046 -35.6742 -35.6737 -35.6733 -35.6716
   -35.6529 -35.6521 -35.6508 -35.6491 -35.6192 -35.6181 -35.6179 -35.6173
   -11.9419 -11.8612 -11.7680 -11.7373 -11.7147 -11.6846 -11.5216 -11.4990
   -11.4576 -11.4528  -6.2317  -6.1982  -6.1879  -6.1747  -5.5123  -5.4617
    -5.2135  -5.1503  -4.9620  -4.9460  -4.5511  -4.5050  -4.2902  -4.0700
    -4.0658  -4.0455  -3.9893  -3.9613  -3.9042  -3.8221  -3.7745  -3.7071
    -3.6057  -3.4981  -3.4595  -3.4273  -3.3824  -3.3099  -3.2496  -3.2485
    -2.8707  -2.8304  -2.8214  -2.7011  -2.6009  -2.5629  -2.3936  -2.3628
    -2.3367  -2.3360  -2.2422  -2.1986  -1.9920  -1.9902  -1.8970  -1.8449
    -1.7290  -1.6593  -1.6489  -1.6071  -1.5828  -1.5253  -1.4336  -1.3538
    -1.2215  -1.2033  -1.1317  -1.0603  -0.9739  -0.9365   0.0774   0.2187
     0.2889   0.5945   0.7353   0.7893   0.8590   1.0291   1.1674   1.3523
     1.4098   1.4852   1.4996   1.6205   1.6535   1.8300   2.1917   2.4892
     2.7124   2.7843   3.0086   3.0282

          k = 0.0000-2.6029 0.0000 ( 92182 PWs)   bands (ev):

  -103.5353-103.5341-103.5240-103.5240-103.2156-103.2119 -69.2071 -69.2059
   -69.2055 -69.2042 -64.1015 -64.1008 -64.0908 -64.0907 -63.9570 -63.9554
   -63.9465 -63.9462 -63.7893 -63.7882 -63.7788 -63.7785 -63.7022 -63.6985
   -63.6915 -63.6876 -63.5077 -63.5044 -35.6809 -35.6805 -35.6800 -35.6783
   -35.6523 -35.6515 -35.6502 -35.6485 -35.6182 -35.6170 -35.6169 -35.6164
   -11.6786 -11.6774 -11.6654 -11.6654 -11.6065 -11.6035 -11.5063 -11.5051
   -11.3809 -11.3809  -6.4613  -6.4604  -6.4212  -6.4211  -5.6864  -5.6844
    -5.1621  -5.1608  -5.1096  -5.1095  -4.2789  -4.2789  -4.2391  -4.2382
    -4.0022  -4.0001  -3.8807  -3.8798  -3.6973  -3.6947  -3.6907  -3.6883
    -3.5698  -3.5681  -3.5003  -3.5000  -3.3984  -3.3978  -3.3248  -3.3239
    -2.8121  -2.8108  -2.7706  -2.7695  -2.4748  -2.4747  -2.4489  -2.4487
    -2.3259  -2.3223  -2.3025  -2.3012  -2.0622  -2.0606  -1.9545  -1.9540
    -1.6614  -1.6584  -1.6511  -1.6503  -1.4985  -1.4973  -1.4856  -1.4854
    -1.3364  -1.3356  -1.1745  -1.1738  -0.9609  -0.9591   0.1122   0.1153
     0.4185   0.4212   0.8425   0.8431   0.8755   0.8766   1.2163   1.2184
     1.6432   1.6440   1.7183   1.7188   1.8265   1.8274   2.1620   2.1625
     2.6020   2.6030   3.0202   3.0218

          k =-0.5000 0.0000 0.0000 ( 92628 PWs)   bands (ev):

  -103.5376-103.5365-103.5218-103.5217-103.2156-103.2119 -69.2087 -69.2075
   -69.2072 -69.2058 -64.1016 -64.1009 -64.0898 -64.0896 -63.9759 -63.9748
   -63.9188 -63.9179 -63.8106 -63.8100 -63.7678 -63.7676 -63.7022 -63.6985
   -63.6916 -63.6877 -63.5079 -63.5046 -35.6591 -35.6584 -35.6565 -35.6550
   -35.6286 -35.6276 -35.6270 -35.6265 -35.6096 -35.6091 -35.6087 -35.6070
   -13.0678 -13.0657 -12.5896 -12.5886 -12.2553 -12.2541 -12.0698 -12.0684
   -11.9304 -11.9294  -6.2290  -6.2277  -5.9962  -5.9958  -5.5836  -5.5806
    -5.2757  -5.2725  -4.6864  -4.6844  -4.0471  -4.0458  -3.8931  -3.8915
    -3.8340  -3.8292  -3.8122  -3.8101  -3.7005  -3.6967  -3.4026  -3.4011
    -2.9351  -2.9334  -2.9058  -2.9028  -2.6119  -2.6105  -2.4773  -2.4746
    -2.4273  -2.4256  -2.3513  -2.3492  -2.2441  -2.2417  -2.1602  -2.1558
    -1.9429  -1.9408  -1.8709  -1.8679  -1.4963  -1.4946  -1.4933  -1.4916
    -1.3821  -1.3818  -1.3808  -1.3801  -1.2378  -1.2346  -1.1223  -1.1192
    -0.9929  -0.9908  -0.7912  -0.7888  -0.3449  -0.3431  -0.2601  -0.2569
     0.4208   0.4221   0.5403   0.5412   0.7082   0.7087   1.0937   1.0987
     1.1721   1.1742   1.7782   1.7811   1.8612   1.8625   2.8910   2.8918
     2.9869   2.9892   3.1442   3.1469

          k =-0.5000 0.5206 0.0000 ( 92572 PWs)   bands (ev):

  -103.5374-103.5363-103.5220-103.5219-103.2156-103.2119 -69.2085 -69.2074
   -69.2070 -69.2056 -64.1016 -64.1008 -64.0898 -64.0897 -63.9750 -63.9739
   -63.9207 -63.9199 -63.8088 -63.8082 -63.7683 -63.7681 -63.7022 -63.6985
   -63.6915 -63.6877 -63.5079 -63.5046 -35.6584 -35.6578 -35.6559 -35.6544
   -35.6276 -35.6266 -35.6261 -35.6256 -35.6165 -35.6160 -35.6155 -35.6138
   -12.9758 -12.9737 -12.5092 -12.5082 -12.2062 -12.2049 -12.0117 -12.0104
   -11.8896 -11.8886  -6.1487  -6.1475  -5.8927  -5.8924  -5.4884  -5.4854
    -5.1971  -5.1940  -4.6431  -4.6412  -4.1201  -4.1180  -3.9762  -3.9754
    -3.8958  -3.8915  -3.8367  -3.8349  -3.7024  -3.6989  -3.4100  -3.4082
    -3.0628  -3.0619  -3.0531  -3.0507  -2.7792  -2.7790  -2.6234  -2.6227
    -2.4759  -2.4749  -2.3710  -2.3693  -2.2563  -2.2540  -2.2194  -2.2169
    -2.0181  -2.0160  -1.9187  -1.9152  -1.7143  -1.7125  -1.5750  -1.5704
    -1.4524  -1.4510  -1.3639  -1.3601  -1.2032  -1.2007  -1.1656  -1.1647
    -1.0354  -1.0344  -0.8950  -0.8934  -0.3875  -0.3851  -0.1431  -0.1414
     0.3337   0.3353   0.5836   0.5854   0.7019   0.7031   0.9613   0.9655
     1.2145   1.2157   1.5962   1.5968   1.7875   1.7909   2.4297   2.4308
     2.5471   2.5492   3.1934   3.1939

          k =-0.5000 1.0412 0.0000 ( 92572 PWs)   bands (ev):

  -103.5369-103.5358-103.5225-103.5224-103.2156-103.2119 -69.2081 -69.2069
   -69.2066 -69.2052 -64.1016 -64.1009 -64.0901 -64.0900 -63.9723 -63.9711
   -63.9261 -63.9254 -63.8044 -63.8038 -63.7701 -63.7699 -63.7022 -63.6985
   -63.6916 -63.6877 -63.5080 -63.5047 -35.6568 -35.6561 -35.6543 -35.6528
   -35.6343 -35.6338 -35.6334 -35.6317 -35.6250 -35.6240 -35.6235 -35.6230
   -12.7133 -12.7112 -12.2853 -12.2844 -12.0726 -12.0711 -11.8520 -11.8507
   -11.7776 -11.7769  -5.9507  -5.9496  -5.6254  -5.6253  -5.2479  -5.2446
    -5.0700  -5.0678  -4.6159  -4.6158  -4.3312  -4.3300  -4.2751  -4.2744
    -4.0225  -4.0223  -3.8911  -3.8885  -3.8362  -3.8335  -3.6231  -3.6216
    -3.3608  -3.3598  -3.2982  -3.2953  -3.0548  -3.0533  -2.8301  -2.8276
    -2.6288  -2.6281  -2.6150  -2.6135  -2.5222  -2.5220  -2.2729  -2.2703
    -2.1545  -2.1523  -2.0097  -2.0069  -1.7498  -1.7487  -1.7129  -1.7109
    -1.5214  -1.5201  -1.4954  -1.4940  -1.3155  -1.3133  -1.2612  -1.2582
    -1.1524  -1.1502  -0.8417  -0.8410  -0.6250  -0.6225   0.1211   0.1220
     0.4350   0.4358   0.5705   0.5715   0.7148   0.7169   0.8921   0.8970
     1.1056   1.1096   1.4608   1.4623   1.7391   1.7417   2.0725   2.0737
     2.2330   2.2346   3.5689   3.5692

          k =-0.5000 1.5618 0.0000 ( 92398 PWs)   bands (ev):

  -103.5362-103.5350-103.5231-103.5231-103.2156-103.2119 -69.2076 -69.2064
   -69.2061 -69.2047 -64.1015 -64.1008 -64.0904 -64.0902 -63.9676 -63.9664
   -63.9336 -63.9329 -63.7984 -63.7976 -63.7728 -63.7726 -63.7022 -63.6984
   -63.6915 -63.6876 -63.5080 -63.5047 -35.6571 -35.6567 -35.6559 -35.6544
   -35.6538 -35.6532 -35.6520 -35.6503 -35.6218 -35.6207 -35.6204 -35.6199
   -12.3264 -12.3243 -11.9774 -11.9766 -11.8945 -11.8929 -11.6517 -11.6499
   -11.6174 -11.6171  -5.8683  -5.8673  -5.5327  -5.5303  -5.3644  -5.3642
    -5.0939  -5.0913  -4.7635  -4.7622  -4.5291  -4.5262  -4.2721  -4.2692
    -4.2495  -4.2472  -4.1784  -4.1763  -3.9368  -3.9362  -3.7304  -3.7286
    -3.4759  -3.4730  -3.3626  -3.3614  -3.2216  -3.2191  -3.1270  -3.1247
    -2.8165  -2.8155  -2.7435  -2.7428  -2.5996  -2.5991  -2.3601  -2.3573
    -2.2018  -2.1992  -2.1594  -2.1576  -1.8567  -1.8554  -1.7430  -1.7415
    -1.6677  -1.6668  -1.5762  -1.5745  -1.5010  -1.5001  -1.2854  -1.2836
    -1.1557  -1.1523  -0.9859  -0.9848  -0.8175  -0.8148   0.2538   0.2558
     0.4806   0.4814   0.6837   0.6853   0.7751   0.7776   0.9793   0.9817
     1.2530   1.2543   1.4184   1.4202   1.7751   1.7772   2.1979   2.1982
     2.4329   2.4352   3.4603   3.4617

          k =-0.5000 2.0823 0.0000 ( 92254 PWs)   bands (ev):

  -103.5356-103.5344-103.5238-103.5237-103.2156-103.2119 -69.2072 -69.2060
   -69.2057 -69.2043 -64.1014 -64.1007 -64.0906 -64.0905 -63.9614 -63.9601
   -63.9417 -63.9411 -63.7924 -63.7915 -63.7763 -63.7763 -63.7021 -63.6984
   -63.6914 -63.6876 -63.5079 -63.5046 -35.6742 -35.6737 -35.6733 -35.6716
   -35.6529 -35.6521 -35.6508 -35.6491 -35.6192 -35.6181 -35.6179 -35.6173
   -11.9119 -11.9101 -11.7359 -11.7343 -11.7068 -11.7055 -11.5162 -11.5147
   -11.4519 -11.4514  -6.2704  -6.2697  -6.1077  -6.1069  -5.5273  -5.5252
    -5.1766  -5.1744  -4.9382  -4.9365  -4.5388  -4.5379  -4.1718  -4.1678
    -4.0721  -4.0704  -4.0047  -4.0012  -3.8481  -3.8466  -3.7396  -3.7388
    -3.5217  -3.5206  -3.3912  -3.3884  -3.3795  -3.3776  -3.2701  -3.2693
    -2.8493  -2.8488  -2.7703  -2.7697  -2.5821  -2.5818  -2.3885  -2.3871
    -2.3079  -2.3048  -2.2704  -2.2700  -1.9580  -1.9577  -1.8780  -1.8768
    -1.7086  -1.7076  -1.5996  -1.5982  -1.5826  -1.5820  -1.3276  -1.3257
    -1.2921  -1.2901  -1.0417  -1.0385  -0.9993  -0.9981   0.1497   0.1526
     0.4707   0.4732   0.7628   0.7635   0.9289   0.9309   1.2076   1.2098
     1.4714   1.4718   1.6140   1.6149   1.6799   1.6811   2.4295   2.4319
     2.5833   2.5839   3.0606   3.0628

          k =-0.5000-2.6029 0.0000 ( 92188 PWs)   bands (ev):

  -103.5353-103.5341-103.5240-103.5240-103.2156-103.2119 -69.2071 -69.2059
   -69.2055 -69.2042 -64.1015 -64.1007 -64.0908 -64.0906 -63.9570 -63.9554
   -63.9465 -63.9463 -63.7894 -63.7882 -63.7788 -63.7786 -63.7021 -63.6984
   -63.6915 -63.6876 -63.5077 -63.5044 -35.6809 -35.6805 -35.6800 -35.6783
   -35.6523 -35.6515 -35.6502 -35.6485 -35.6182 -35.6170 -35.6169 -35.6164
   -11.6770 -11.6755 -11.6683 -11.6681 -11.6043 -11.6013 -11.5082 -11.5070
   -11.3802 -11.3801  -6.5136  -6.5134  -6.3560  -6.3553  -5.7024  -5.7001
    -5.1764  -5.1745  -5.0951  -5.0944  -4.3062  -4.3055  -4.2080  -4.2060
    -3.9912  -3.9889  -3.8701  -3.8696  -3.7539  -3.7522  -3.6673  -3.6648
    -3.6557  -3.6550  -3.4571  -3.4559  -3.3454  -3.3453  -3.2731  -3.2731
    -2.8587  -2.8580  -2.7633  -2.7624  -2.4952  -2.4949  -2.4386  -2.4382
    -2.3527  -2.3494  -2.3002  -2.2990  -2.0561  -2.0551  -1.9361  -1.9354
    -1.6665  -1.6640  -1.6490  -1.6484  -1.4957  -1.4920  -1.4834  -1.4806
    -1.3445  -1.3428  -1.1772  -1.1760  -0.9649  -0.9629   0.1183   0.1215
     0.4779   0.4812   0.7338   0.7349   0.8642   0.8650   1.4014   1.4021
     1.4504   1.4516   1.7923   1.7925   1.8057   1.8070   2.3520   2.3521
     2.3731   2.3737   3.1906   3.1915

     the Fermi energy is    -0.3227 ev

!    total energy              =   -9109.83490868 Ry
     total all-electron energy =     -9109.834909 Ry
     estimated scf accuracy    <          2.4E-11 Ry
     smearing contrib. (-TS)   =      -0.00014091 Ry
     internal energy E=F+TS    =   -9109.83476777 Ry

     The total energy is F=E-TS. E is the sum of the following terms:
     one-electron contribution =  -15516.65262269 Ry
     hartree contribution      =    7614.34869271 Ry
     xc contribution           =    -364.43891242 Ry
     ewald contribution        =    5424.49952822 Ry
     one-center paw contrib.   =   -6267.59145358 Ry

     convergence has been achieved in  20 iterations

     negative rho (up, down):  6.567E-02 0.000E+00

     Forces acting on atoms (cartesian axes, Ry/au):

     atom    1 type  1   force =    -0.00029634    0.00000000   -0.00096024
     atom    2 type  1   force =     0.00011569    0.00000000    0.00002308
     atom    3 type  1   force =     0.00023179    0.00000000    0.00010747
     atom    4 type  1   force =     0.00010665    0.00000000    0.00004453
     atom    5 type  2   force =    -0.00016735    0.00000000    0.00076675
     atom    6 type  2   force =    -0.00026272    0.00000000   -0.00040886
     atom    7 type  2   force =    -0.00003108    0.00000000    0.00028313
     atom    8 type  2   force =     0.00011611    0.00000000    0.00005190
     atom    9 type  2   force =     0.00032163    0.00000000    0.00008826
     atom   10 type  2   force =    -0.00028579    0.00000000    0.00000347
     atom   11 type  3   force =    -0.00016014    0.00000000    0.00013669
     atom   12 type  3   force =     0.00002867    0.00000000    0.00019404
     atom   13 type  3   force =    -0.00010806    0.00000000    0.00011627
     atom   14 type  3   force =     0.00037311    0.00000000   -0.00037196
     atom   15 type  3   force =    -0.00020145    0.00000000   -0.00049451
     atom   16 type  3   force =    -0.00010492    0.00000000   -0.00005839
     atom   17 type  3   force =     0.00058346    0.00000000   -0.00004151
     atom   18 type  3   force =     0.00026659    0.00000000    0.00042432
     atom   19 type  3   force =    -0.00022098    0.00000000   -0.00030120
     atom   20 type  3   force =    -0.00030488    0.00000000    0.00039677

     Total force =     0.001978     Total SCF correction =     0.000024


     Computing stress (Cartesian axis) and pressure


     negative rho (up, down):  6.567E-02 0.000E+00
          total   stress  (Ry/bohr**3)                   (kbar)     P=      -11.83
  -0.00017066   0.00000000   0.00000011          -25.11        0.00        0.02
   0.00000000  -0.00003486   0.00000000            0.00       -5.13        0.00
   0.00000011   0.00000000  -0.00003583            0.02        0.00       -5.27

     Energy error            =      1.1E-05 Ry
     Gradient error          =      9.6E-04 Ry/Bohr

     bfgs converged in  45 scf cycles and  44 bfgs steps
     (criteria: energy <  1.0E-04 Ry, force <  1.0E-03 Ry/Bohr)

     End of BFGS Geometry Optimization

     Final energy             =   -9109.8349086794 Ry

     File /ddn/data/physics/eamoujaes/2D-Ta2Ni3Te5/ELASTIC/OUT/ta2ni3te5.bfgs deleted, as requested
Begin final coordinates

ATOMIC_POSITIONS (angstrom)
Ta              15.9467549445        0.9149235643       12.4031143687
Ta               6.4180624075        2.7447696811       12.6342536963
Ta               1.8503208469        0.9149235643       12.4205928605
Ta              11.3797614383        2.7447696811       12.6166677943
Ni              13.2403692064        0.9149235643       11.7679918968
Ni               3.7112728602        2.7447696811       13.2670790264
Ni               4.5576275150        0.9149235643       11.7961646608
Ni              14.0857882700        2.7447696811       13.2393970853
Ni               8.8952154172        0.9149235643       12.2591886750
Ni              -0.6227145522        2.7447696811       12.7741461388
Te              14.6848562787        2.7447696811       10.5605990734
Te               5.1546685555        0.9149235643       14.4748052516
Te              10.8661676706        0.9149235643       10.5627556136
Te               1.3384141176        2.7447696811       14.4760640212
Te               3.1202208492        2.7447696811       10.5859485780
Te              12.6492198946        0.9149235643       14.4524316295
Te               6.9179556236        0.9149235643       10.5756928961
Te              16.4510861646        2.7447696811       14.4583007288
Te              -0.6214872945        0.9149235643       11.0078204753
Te               8.9050021497        2.7447696811       14.0252365294
End final coordinates



     Writing all to output data dir /ddn/data/physics/eamoujaes/2D-Ta2Ni3Te5/ELASTIC/OUT/ta2ni3te5.save/ :
     XML data file, charge density, pseudopotentials, collected wavefunctions
 
     init_run     :     52.51s CPU     64.24s WALL (       1 calls)
     electrons    :  33659.63s CPU  43898.84s WALL (      45 calls)
     update_pot   :   1286.53s CPU   1661.96s WALL (      44 calls)
     forces       :     84.93s CPU    106.25s WALL (      45 calls)
     stress       :    148.63s CPU    231.13s WALL (      45 calls)

     Called by init_run:
     wfcinit      :      6.04s CPU      7.78s WALL (       1 calls)
     potinit      :     41.86s CPU     50.53s WALL (       1 calls)
     hinit0       :      2.61s CPU      3.05s WALL (       1 calls)

     Called by electrons:
     c_bands      :   2233.60s CPU   3249.85s WALL (    1066 calls)
     sum_band     :   1010.59s CPU   1269.05s WALL (    1066 calls)
     v_of_rho     :    381.71s CPU    510.62s WALL (    1102 calls)
     newd         :     83.89s CPU    134.76s WALL (    1102 calls)
                                      134.75s GPU  (    1102 calls)
     PAW_pot      :  32088.74s CPU  41478.26s WALL (    1146 calls)
     mix_rho      :    130.38s CPU    242.90s WALL (    1066 calls)

     Called by c_bands:
     init_us_2    :    189.58s CPU    237.74s WALL (   27204 calls)
     init_us_2:cp :    157.67s CPU    198.23s WALL (     528 calls)
     init_us_2:gp :     31.23s CPU     38.77s WALL (   26676 calls)
     cegterg      :   1258.88s CPU   2127.86s WALL (   12792 calls)

     Called by *egterg:
     cdiaghg      :    110.40s CPU    177.04s WALL (   43297 calls)
                                      176.80s GPU  (   43297 calls)
     h_psi        :    889.13s CPU   1523.77s WALL (   43945 calls)
                                     1519.95s GPU  (   43945 calls)
     s_psi        :     20.71s CPU     28.24s WALL (   43945 calls)
     g_psi        :      0.11s CPU     13.84s WALL (   31141 calls)
                                       13.54s GPU  (   31141 calls)

     Called by h_psi:
     h_psi:calbec :      1.47s CPU     62.55s WALL (   43945 calls)
                                       61.83s GPU  (   43945 calls)
     vloc_psi     :    792.49s CPU   1367.50s WALL (   43945 calls)
                                     1367.25s GPU  (   43945 calls)
     add_vuspsi   :     15.24s CPU     78.03s WALL (   43945 calls)
                                       77.39s GPU  (   43945 calls)

     General routines
     calbec       :    484.68s CPU   1018.89s WALL (   59965 calls)
     fft          :    137.79s CPU    144.61s WALL (   15414 calls)
                                        5.80s GPU  (   14312 calls)
     ffts         :     28.02s CPU     28.41s WALL (    2168 calls)
                                        0.15s GPU  (    1066 calls)
     fftw         :      4.65s CPU   1198.58s WALL (  650186 calls)
                                     1185.03s GPU  (  650186 calls)
     interpolate  :    184.91s CPU    196.05s WALL (    1102 calls)
 
     Parallel routines
 
     PWSCF        :     10h19m CPU     13h33m WALL

 
   This run was terminated on:   5:50:51  30Jul2024            

=------------------------------------------------------------------------------=
   JOB DONE.
=------------------------------------------------------------------------------=
