
     Program PWSCF v.7.3 starts on 27Jul2024 at 16:15:27 

     This program is part of the open-source Quantum ESPRESSO suite
     for quantum simulation of materials; please cite
         "P. Giannozzi et al., J. Phys.:Condens. Matter 21 395502 (2009);
         "P. Giannozzi et al., J. Phys.:Condens. Matter 29 465901 (2017);
         "P. Giannozzi et al., J. Chem. Phys. 152 154105 (2020);
          URL http://www.quantum-espresso.org", 
     in publications or presentations arising from this work. More details at
     http://www.quantum-espresso.org/quote

     Parallel version (MPI & OpenMP), running on      32 processor cores
     Number of MPI processes:                 1
     Threads/MPI process:                    32

     MPI processes distributed on     1 nodes
     356405 MiB available memory on the printing compute node when the environment starts
 
     Waiting for input...
     Reading input from standard input
Warning: card &CELL ignored
Warning: card CELL_DYNAMICS='BFGS' ignored
Warning: card PRESS=0.0 ignored
Warning: card CELL_DOFREE='2DXY' ignored
Warning: card / ignored

     Current dimensions of program PWSCF are:
     Max number of different atomic species (ntypx) = 10
     Max number of k-points (npk) =  40000
     Max angular momentum in pseudopotentials (lmaxx) =  4
read_pp_mesh; mismatch in mesh size, discarding the one in header
read_pp_mesh; mismatch in mesh size, discarding the one in header
read_pp_mesh; mismatch in mesh size, discarding the one in header
     Message from routine setup:
     using ibrav=0 with symmetry is DISCOURAGED, use correct ibrav instead
 
     Subspace diagonalization in iterative solution of the eigenvalue problem:
     a serial algorithm will be used

 
     G-vector sticks info
     --------------------
     sticks:   dense  smooth     PW     G-vecs:    dense   smooth      PW
     Sum        8109    4045   1131              1781601   629665   93653
 
     Using Slab Decomposition
 


     bravais-lattice index     =            0
     lattice parameter (alat)  =      30.6689  a.u.
     unit-cell volume          =   10034.5744 (a.u.)^3
     number of atoms/cell      =           20
     number of atomic types    =            3
     number of electrons       =       220.00
     number of Kohn-Sham states=          132
     kinetic-energy cutoff     =      60.0000  Ry
     charge density cutoff     =     480.0000  Ry
     scf convergence threshold =      1.0E-08
     mixing beta               =       0.2000
     number of iterations used =            8  plain     mixing
     energy convergence thresh.=      1.0E-04
     force convergence thresh. =      1.0E-03
     Exchange-correlation= SLA PW PBX PBC
                           (   1   4   3   4   0   0   0)
     nstep                     =         2000


     GPU acceleration is ACTIVE.  1 visible GPUs per MPI rank
     GPU-aware MPI enabled


     celldm(1)=  30.668932  celldm(2)=   0.000000  celldm(3)=   0.000000
     celldm(4)=   0.000000  celldm(5)=   0.000000  celldm(6)=   0.000000

     crystal axes: (cart. coord. in units of alat)
               a(1) = (   1.000000   0.000000   0.000000 )  
               a(2) = (   0.000000   0.225499   0.000000 )  
               a(3) = (   0.000000   0.000000   1.542617 )  

     reciprocal axes: (cart. coord. in units 2 pi/alat)
               b(1) = (  1.000000  0.000000  0.000000 )  
               b(2) = (  0.000000  4.434608  0.000000 )  
               b(3) = (  0.000000  0.000000  0.648249 )  


     PseudoPot. # 1 for Ta read from file:
     /ddn/data/physics/eamoujaes/PSEUDO-CREATED/Ta.upf
     MD5 check sum: d865b2c2c09566b116f2b8decb2c153d
     Pseudo is Projector augmented-wave + core cor, Zval = 13.0
     Generated using ATOMPAW code
     Shape of augmentation charge: SINC**2
     Using radial grid of 2342 points,  6 beta functions with: 
                l(1) =   0
                l(2) =   0
                l(3) =   1
                l(4) =   1
                l(5) =   2
                l(6) =   2
     Q(r) pseudized with 0 coefficients 


     PseudoPot. # 2 for Ni read from file:
     /ddn/data/physics/eamoujaes/PSEUDO-CREATED/Ni.upf
     MD5 check sum: 85a2a5d9d38f4289a1cc30d5adb66a03
     Pseudo is Projector augmented-wave + core cor, Zval = 18.0
     Generated using ATOMPAW code
     Shape of augmentation charge: SINC**2
     Using radial grid of 2342 points,  6 beta functions with: 
                l(1) =   0
                l(2) =   0
                l(3) =   1
                l(4) =   1
                l(5) =   2
                l(6) =   2
     Q(r) pseudized with 0 coefficients 


     PseudoPot. # 3 for Te read from file:
     /ddn/data/physics/eamoujaes/PSEUDO-CREATED/Te.upf
     MD5 check sum: 8d958f193a7511a138982c2e72838810
     Pseudo is Projector augmented-wave + core cor, Zval =  6.0
     Generated using ATOMPAW code
     Shape of augmentation charge: SINC**2
     Using radial grid of 2342 points,  4 beta functions with: 
                l(1) =   0
                l(2) =   0
                l(3) =   1
                l(4) =   1
     Q(r) pseudized with 0 coefficients 


     atomic species   valence    mass     pseudopotential
     Ta               13.00   180.94790     Ta( 1.00)
     Ni               18.00    58.69340     Ni( 1.00)
     Te                6.00   127.60000     Te( 1.00)

      2 Sym. Ops. (no inversion) found ( 1 have fractional translation)



   Cartesian axes

     site n.     atom                  positions (alat units)
         1        Ta     tau(   1) = (   0.9483983   0.0563748   0.7667515  )
         2        Ta     tau(   2) = (   0.4049189   0.1691243   0.7758804  )
         3        Ta     tau(   3) = (   0.1395720   0.0563748   0.7667408  )
         4        Ta     tau(   4) = (   0.6830518   0.1691243   0.7758903  )
         5        Ni     tau(   5) = (   0.7926656   0.0563748   0.7247195  )
         6        Ni     tau(   6) = (   0.2491851   0.1691243   0.8179123  )
         7        Ni     tau(   7) = (   0.2952972   0.0563748   0.7247030  )
         8        Ni     tau(   8) = (   0.8387768   0.1691243   0.8179281  )
         9        Ni     tau(   9) = (   0.5439758   0.0563748   0.7620911  )
        10        Ni     tau(  10) = (   0.0004977   0.1691243   0.7805395  )
        11        Te     tau(  11) = (   0.8757644   0.1691243   0.6491504  )
        12        Te     tau(  12) = (   0.3322831   0.0563748   0.8934811  )
        13        Te     tau(  13) = (   0.6528583   0.0563748   0.6481693  )
        14        Te     tau(  14) = (   0.1093793   0.1691243   0.8944622  )
        15        Te     tau(  15) = (   0.2121896   0.1691243   0.6491367  )
        16        Te     tau(  16) = (   0.7556697   0.0563748   0.8934946  )
        17        Te     tau(  17) = (   0.4351154   0.0563748   0.6481593  )
        18        Te     tau(  18) = (   0.9785944   0.1691243   0.8944728  )
        19        Te     tau(  19) = (   0.0005114   0.0563748   0.6677811  )
        20        Te     tau(  20) = (   0.5439888   0.1691243   0.8748484  )

     number of k points=    12  Gaussian smearing, width (Ry)=  0.0020
                       cart. coord. in units 2pi/alat
        k(    1) = (   0.0000000   0.0000000   0.0000000), wk =   0.1000000
        k(    2) = (   0.0000000   0.4434608   0.0000000), wk =   0.2000000
        k(    3) = (   0.0000000   0.8869216   0.0000000), wk =   0.2000000
        k(    4) = (   0.0000000   1.3303824   0.0000000), wk =   0.2000000
        k(    5) = (   0.0000000   1.7738431   0.0000000), wk =   0.2000000
        k(    6) = (   0.0000000  -2.2173039   0.0000000), wk =   0.1000000
        k(    7) = (  -0.5000000   0.0000000   0.0000000), wk =   0.1000000
        k(    8) = (  -0.5000000   0.4434608   0.0000000), wk =   0.2000000
        k(    9) = (  -0.5000000   0.8869216   0.0000000), wk =   0.2000000
        k(   10) = (  -0.5000000   1.3303824   0.0000000), wk =   0.2000000
        k(   11) = (  -0.5000000   1.7738431   0.0000000), wk =   0.2000000
        k(   12) = (  -0.5000000  -2.2173039   0.0000000), wk =   0.1000000

     Dense  grid:  1781601 G-vectors     FFT dimensions: ( 216,  50, 360)

     Smooth grid:   629665 G-vectors     FFT dimensions: ( 160,  36, 240)

     Estimated max dynamical RAM per process >       9.10 GB

     Initial potential from superposition of free atoms

     starting charge     219.9927, renormalised to     220.0000

     negative rho (up, down):  4.435E-02 0.000E+00
     Starting wfcs are  260 randomized atomic wfcs
     Checking if some PAW data can be deallocated... 

     total cpu time spent up to now is       65.3 secs

     Self-consistent Calculation

     iteration #  1     ecut=    60.00 Ry     beta= 0.20
     Davidson diagonalization with overlap
     ethr =  1.00E-02,  avg # of iterations =  3.2

     negative rho (up, down):  4.589E-02 0.000E+00

     total cpu time spent up to now is      102.6 secs

     total energy              =   -9104.70656658 Ry
     estimated scf accuracy    <      10.98603279 Ry

     iteration #  2     ecut=    60.00 Ry     beta= 0.20
     Davidson diagonalization with overlap
     ethr =  4.99E-03,  avg # of iterations =  2.5

     negative rho (up, down):  4.687E-02 0.000E+00

     total cpu time spent up to now is      139.4 secs

     total energy              =   -9101.83118020 Ry
     estimated scf accuracy    <      84.50991793 Ry

     iteration #  3     ecut=    60.00 Ry     beta= 0.20
     Davidson diagonalization with overlap
     ethr =  4.99E-03,  avg # of iterations =  2.0

     negative rho (up, down):  4.804E-02 0.000E+00

     total cpu time spent up to now is      175.9 secs

     total energy              =   -9104.08891450 Ry
     estimated scf accuracy    <      90.10297333 Ry

     iteration #  4     ecut=    60.00 Ry     beta= 0.20
     Davidson diagonalization with overlap
     ethr =  4.99E-03,  avg # of iterations =  1.0

     negative rho (up, down):  5.005E-02 0.000E+00

     total cpu time spent up to now is      212.4 secs

     total energy              =   -9107.55077626 Ry
     estimated scf accuracy    <       2.82082901 Ry

     iteration #  5     ecut=    60.00 Ry     beta= 0.20
     Davidson diagonalization with overlap
     ethr =  1.28E-03,  avg # of iterations =  1.3

     negative rho (up, down):  5.163E-02 0.000E+00

     total cpu time spent up to now is      249.0 secs

     total energy              =   -9107.58379870 Ry
     estimated scf accuracy    <       1.67017427 Ry

     iteration #  6     ecut=    60.00 Ry     beta= 0.20
     Davidson diagonalization with overlap
     ethr =  7.59E-04,  avg # of iterations =  1.0

     negative rho (up, down):  5.355E-02 0.000E+00

     total cpu time spent up to now is      285.6 secs

     total energy              =   -9107.52870868 Ry
     estimated scf accuracy    <       1.17275180 Ry

     iteration #  7     ecut=    60.00 Ry     beta= 0.20
     Davidson diagonalization with overlap
     ethr =  5.33E-04,  avg # of iterations =  1.0

     negative rho (up, down):  5.844E-02 0.000E+00

     total cpu time spent up to now is      322.0 secs

     total energy              =   -9107.42498274 Ry
     estimated scf accuracy    <       0.65262551 Ry

     iteration #  8     ecut=    60.00 Ry     beta= 0.20
     Davidson diagonalization with overlap
     ethr =  2.97E-04,  avg # of iterations =  1.6

     negative rho (up, down):  6.208E-02 0.000E+00

     total cpu time spent up to now is      358.6 secs

     total energy              =   -9107.46691657 Ry
     estimated scf accuracy    <       0.18510995 Ry

     iteration #  9     ecut=    60.00 Ry     beta= 0.20
     Davidson diagonalization with overlap
     c_bands:  1 eigenvalues not converged
     c_bands:  1 eigenvalues not converged
     ethr =  8.41E-05,  avg # of iterations = 11.5

     negative rho (up, down):  6.410E-02 0.000E+00

     total cpu time spent up to now is      396.8 secs

     total energy              =   -9107.46175800 Ry
     estimated scf accuracy    <       0.19922522 Ry

     iteration # 10     ecut=    60.00 Ry     beta= 0.20
     Davidson diagonalization with overlap
     ethr =  8.41E-05,  avg # of iterations =  1.4

     negative rho (up, down):  6.538E-02 0.000E+00

     total cpu time spent up to now is      433.4 secs

     total energy              =   -9107.46839741 Ry
     estimated scf accuracy    <       0.03088890 Ry

     iteration # 11     ecut=    60.00 Ry     beta= 0.20
     Davidson diagonalization with overlap
     c_bands:  1 eigenvalues not converged
     c_bands:  1 eigenvalues not converged
     ethr =  1.40E-05,  avg # of iterations = 12.9

     negative rho (up, down):  6.643E-02 0.000E+00

     total cpu time spent up to now is      471.2 secs

     total energy              =   -9107.46768370 Ry
     estimated scf accuracy    <       0.01147746 Ry

     iteration # 12     ecut=    60.00 Ry     beta= 0.20
     Davidson diagonalization with overlap
     ethr =  5.22E-06,  avg # of iterations =  6.3

     negative rho (up, down):  6.799E-02 0.000E+00

     total cpu time spent up to now is      508.8 secs

     total energy              =   -9107.46878648 Ry
     estimated scf accuracy    <       0.00685475 Ry

     iteration # 13     ecut=    60.00 Ry     beta= 0.20
     Davidson diagonalization with overlap
     ethr =  3.12E-06,  avg # of iterations =  2.0

     negative rho (up, down):  6.836E-02 0.000E+00

     total cpu time spent up to now is      545.6 secs

     total energy              =   -9107.46936413 Ry
     estimated scf accuracy    <       0.00077294 Ry

     iteration # 14     ecut=    60.00 Ry     beta= 0.20
     Davidson diagonalization with overlap
     ethr =  3.51E-07,  avg # of iterations =  4.1

     negative rho (up, down):  6.888E-02 0.000E+00

     total cpu time spent up to now is      582.8 secs

     total energy              =   -9107.46945009 Ry
     estimated scf accuracy    <       0.00041186 Ry

     iteration # 15     ecut=    60.00 Ry     beta= 0.20
     Davidson diagonalization with overlap
     ethr =  1.87E-07,  avg # of iterations =  2.0

     negative rho (up, down):  6.896E-02 0.000E+00

     total cpu time spent up to now is      619.7 secs

     total energy              =   -9107.46947219 Ry
     estimated scf accuracy    <       0.00022582 Ry

     iteration # 16     ecut=    60.00 Ry     beta= 0.20
     Davidson diagonalization with overlap
     ethr =  1.03E-07,  avg # of iterations =  1.0

     negative rho (up, down):  6.900E-02 0.000E+00

     total cpu time spent up to now is      657.1 secs

     total energy              =   -9107.46948226 Ry
     estimated scf accuracy    <       0.00004743 Ry

     iteration # 17     ecut=    60.00 Ry     beta= 0.20
     Davidson diagonalization with overlap
     ethr =  2.16E-08,  avg # of iterations =  2.0

     negative rho (up, down):  6.908E-02 0.000E+00

     total cpu time spent up to now is      694.0 secs

     total energy              =   -9107.46948438 Ry
     estimated scf accuracy    <       0.00007773 Ry

     iteration # 18     ecut=    60.00 Ry     beta= 0.20
     Davidson diagonalization with overlap
     ethr =  2.16E-08,  avg # of iterations =  1.1

     negative rho (up, down):  6.906E-02 0.000E+00

     total cpu time spent up to now is      730.9 secs

     total energy              =   -9107.46948638 Ry
     estimated scf accuracy    <       0.00006678 Ry

     iteration # 19     ecut=    60.00 Ry     beta= 0.20
     Davidson diagonalization with overlap
     ethr =  2.16E-08,  avg # of iterations =  1.1

     negative rho (up, down):  6.907E-02 0.000E+00

     total cpu time spent up to now is      767.5 secs

     total energy              =   -9107.46948973 Ry
     estimated scf accuracy    <       0.00001825 Ry

     iteration # 20     ecut=    60.00 Ry     beta= 0.20
     Davidson diagonalization with overlap
     ethr =  8.29E-09,  avg # of iterations =  1.2

     negative rho (up, down):  6.905E-02 0.000E+00

     total cpu time spent up to now is      804.3 secs

     total energy              =   -9107.46949108 Ry
     estimated scf accuracy    <       0.00000826 Ry

     iteration # 21     ecut=    60.00 Ry     beta= 0.20
     Davidson diagonalization with overlap
     ethr =  3.75E-09,  avg # of iterations =  1.0

     negative rho (up, down):  6.902E-02 0.000E+00

     total cpu time spent up to now is      841.0 secs

     total energy              =   -9107.46949169 Ry
     estimated scf accuracy    <       0.00000173 Ry

     iteration # 22     ecut=    60.00 Ry     beta= 0.20
     Davidson diagonalization with overlap
     ethr =  7.87E-10,  avg # of iterations =  2.3

     negative rho (up, down):  6.896E-02 0.000E+00

     total cpu time spent up to now is      878.0 secs

     total energy              =   -9107.46949186 Ry
     estimated scf accuracy    <       0.00000063 Ry

     iteration # 23     ecut=    60.00 Ry     beta= 0.20
     Davidson diagonalization with overlap
     ethr =  2.85E-10,  avg # of iterations =  2.0

     negative rho (up, down):  6.893E-02 0.000E+00

     total cpu time spent up to now is      915.0 secs

     total energy              =   -9107.46949194 Ry
     estimated scf accuracy    <       0.00000022 Ry

     iteration # 24     ecut=    60.00 Ry     beta= 0.20
     Davidson diagonalization with overlap
     ethr =  9.88E-11,  avg # of iterations =  2.5

     negative rho (up, down):  6.890E-02 0.000E+00

     total cpu time spent up to now is      952.0 secs

     total energy              =   -9107.46949195 Ry
     estimated scf accuracy    <       0.00000020 Ry

     iteration # 25     ecut=    60.00 Ry     beta= 0.20
     Davidson diagonalization with overlap
     ethr =  9.02E-11,  avg # of iterations =  1.1

     negative rho (up, down):  6.888E-02 0.000E+00

     total cpu time spent up to now is      988.8 secs

     total energy              =   -9107.46949198 Ry
     estimated scf accuracy    <       0.00000007 Ry

     iteration # 26     ecut=    60.00 Ry     beta= 0.20
     Davidson diagonalization with overlap
     ethr =  3.38E-11,  avg # of iterations =  2.0

     negative rho (up, down):  6.887E-02 0.000E+00

     total cpu time spent up to now is     1025.6 secs

     total energy              =   -9107.46949199 Ry
     estimated scf accuracy    <       0.00000003 Ry

     iteration # 27     ecut=    60.00 Ry     beta= 0.20
     Davidson diagonalization with overlap
     ethr =  1.16E-11,  avg # of iterations =  2.3

     negative rho (up, down):  6.886E-02 0.000E+00

     total cpu time spent up to now is     1062.5 secs

     total energy              =   -9107.46949199 Ry
     estimated scf accuracy    <       0.00000002 Ry

     iteration # 28     ecut=    60.00 Ry     beta= 0.20
     Davidson diagonalization with overlap
     ethr =  8.34E-12,  avg # of iterations =  1.5

     negative rho (up, down):  6.885E-02 0.000E+00

     total cpu time spent up to now is     1099.1 secs

     total energy              =   -9107.46949199 Ry
     estimated scf accuracy    <       0.00000001 Ry

     iteration # 29     ecut=    60.00 Ry     beta= 0.20
     Davidson diagonalization with overlap
     ethr =  5.44E-12,  avg # of iterations =  1.5

     negative rho (up, down):  6.885E-02 0.000E+00

     total cpu time spent up to now is     1136.3 secs

     total energy              =   -9107.46949199 Ry
     estimated scf accuracy    <       0.00000001 Ry

     iteration # 30     ecut=    60.00 Ry     beta= 0.20
     Davidson diagonalization with overlap
     ethr =  5.44E-12,  avg # of iterations =  1.0

     negative rho (up, down):  6.883E-02 0.000E+00

     total cpu time spent up to now is     1172.5 secs

     End of self-consistent calculation

          k = 0.0000 0.0000 0.0000 ( 78943 PWs)   bands (ev):

  -104.7180-102.8629-102.8214-102.8030-102.6561-102.4831 -68.1692 -68.1511
   -67.9389 -67.8113 -65.4225 -65.2972 -64.9864 -63.4232 -63.4155 -63.3463
   -63.2895 -63.2639 -63.2604 -63.1924 -63.1620 -63.1189 -63.0501 -63.0430
   -62.9719 -62.9470 -62.9213 -62.7783 -35.8260 -34.7011 -34.6467 -34.6318
   -34.6247 -34.6023 -34.6001 -34.5859 -34.5238 -34.4941 -34.3824 -34.2128
   -16.5950 -14.5920 -12.3482 -12.1263 -11.7096 -11.5384 -11.3489 -11.2871
   -11.0472 -10.8423  -7.6078  -7.1043  -6.5367  -6.3023  -5.6921  -5.5129
    -5.2234  -4.9854  -4.9047  -4.5651  -4.3666  -4.3276  -4.2462  -3.8710
    -3.7701  -3.6650  -3.5161  -3.4109  -3.2371  -3.1655  -3.1225  -3.1161
    -3.0580  -2.9300  -2.7724  -2.6803  -2.6638  -2.4020  -2.3061  -2.2425
    -2.1748  -2.0360  -1.9413  -1.7717  -1.6739  -1.6130  -1.5729  -1.5440
    -1.5021  -1.3768  -1.2928  -1.2807  -1.1870  -1.0584  -1.0077  -0.9571
    -0.8323  -0.7854  -0.7293  -0.6875  -0.6595  -0.5038  -0.3978  -0.2607
    -0.1625  -0.0146   0.0194   0.1608   0.3818   0.3846   0.4397   0.6828
     1.0916   1.1980   1.4140   1.4227   1.5816   1.7484   2.0608   2.2118
     2.3327   2.3928   2.7656   2.8896   2.9258   3.3773   3.4793   3.6317
     3.7893   3.8839   4.0138   4.0400

          k = 0.0000 0.4435 0.0000 ( 78835 PWs)   bands (ev):

  -104.7180-102.8629-102.8212-102.8031-102.6561-102.4831 -68.1691 -68.1509
   -67.9388 -67.8218 -65.4078 -65.2969 -64.9883 -63.4231 -63.4154 -63.3463
   -63.2897 -63.2631 -63.2599 -63.1946 -63.1625 -63.1169 -63.0503 -63.0425
   -62.9718 -62.9469 -62.9211 -62.7782 -35.8257 -34.7167 -34.6460 -34.6312
   -34.6237 -34.6071 -34.6013 -34.5929 -34.5311 -34.4916 -34.3809 -34.2073
   -16.5471 -14.4967 -12.2573 -12.0401 -11.6441 -11.4943 -11.2994 -11.2297
   -11.0236 -10.8127  -7.5402  -7.1923  -6.5055  -6.2147  -5.6577  -5.4426
    -5.1481  -5.0215  -4.8932  -4.8467  -4.5687  -4.4322  -4.2171  -4.0160
    -3.7563  -3.6900  -3.4957  -3.3657  -3.3551  -3.2528  -3.2007  -3.1004
    -3.0593  -3.0328  -2.8335  -2.7007  -2.6392  -2.4549  -2.2805  -2.2535
    -2.2164  -2.1359  -2.0647  -1.9079  -1.7775  -1.6824  -1.5760  -1.5417
    -1.4936  -1.4459  -1.3871  -1.3202  -1.2561  -1.1831  -1.0363  -0.9748
    -0.8607  -0.8038  -0.7509  -0.7109  -0.6138  -0.5209  -0.4270  -0.3961
    -0.1816  -0.0394  -0.0006   0.1643   0.3631   0.4538   0.5682   0.7082
     0.8871   1.2908   1.3940   1.4732   1.5608   1.7685   1.7991   2.0633
     2.1608   2.4726   2.5737   2.7342   3.0570   3.1739   3.3337   3.3966
     3.5624   3.8254   3.9722   4.1030

          k = 0.0000 0.8869 0.0000 ( 78769 PWs)   bands (ev):

  -104.7180-102.8629-102.8208-102.8036-102.6561-102.4831 -68.1687 -68.1505
   -67.9385 -67.8487 -65.3695 -65.2962 -64.9941 -63.4231 -63.4154 -63.3464
   -63.2904 -63.2611 -63.2588 -63.2003 -63.1642 -63.1123 -63.0510 -63.0415
   -62.9717 -62.9469 -62.9209 -62.7783 -35.8250 -34.7557 -34.6444 -34.6296
   -34.6255 -34.6210 -34.6113 -34.5985 -34.5502 -34.4863 -34.3769 -34.1934
   -16.4189 -14.2135 -11.9979 -11.7965 -11.4728 -11.3760 -11.1835 -11.0755
   -10.9608 -10.7393  -7.5242  -7.2160  -6.5176  -6.2215  -5.9135  -5.5790
    -5.1934  -5.0575  -4.9103  -4.6897  -4.6510  -4.3911  -4.1735  -4.0594
    -3.8920  -3.7952  -3.6645  -3.6169  -3.5092  -3.4559  -3.3369  -3.2774
    -3.1911  -3.1051  -2.9737  -2.9379  -2.7366  -2.6276  -2.4871  -2.3623
    -2.2855  -2.2457  -2.1420  -2.0405  -1.9888  -1.8497  -1.7768  -1.7045
    -1.6501  -1.5150  -1.4881  -1.3973  -1.3320  -1.1681  -1.1406  -1.0522
    -0.9349  -0.8976  -0.8269  -0.7011  -0.6614  -0.5888  -0.4920  -0.4386
    -0.3888  -0.0592  -0.0225   0.1287   0.2317   0.4674   0.5461   0.9396
     1.1408   1.2947   1.3723   1.4835   1.5886   1.6841   1.8461   2.0550
     2.1082   2.2689   2.5665   2.7059   2.7754   2.8774   3.0262   3.1601
     3.7223   4.0924   4.3016   4.3764

          k = 0.0000 1.3304 0.0000 ( 78735 PWs)   bands (ev):

  -104.7180-102.8628-102.8202-102.8042-102.6562-102.4831 -68.1681 -68.1500
   -67.9384 -67.8807 -65.3235 -65.2933 -65.0032 -63.4232 -63.4156 -63.3466
   -63.2914 -63.2580 -63.2574 -63.2075 -63.1663 -63.1071 -63.0521 -63.0402
   -62.9718 -62.9469 -62.9207 -62.7783 -35.8242 -34.8014 -34.6482 -34.6421
   -34.6340 -34.6274 -34.6178 -34.5952 -34.5737 -34.4811 -34.3723 -34.1770
   -16.2538 -13.7531 -11.6159 -11.4758 -11.3483 -11.2058 -11.1091 -10.8845
   -10.8092 -10.6532  -7.6979  -7.2100  -6.9651  -6.4707  -5.9170  -5.6257
    -5.2892  -5.0605  -4.7809  -4.7728  -4.6098  -4.4036  -4.2805  -4.2378
    -4.1887  -4.0196  -3.8722  -3.8199  -3.6979  -3.6064  -3.4617  -3.3574
    -3.2743  -3.1866  -3.0761  -3.0007  -2.7827  -2.7616  -2.6310  -2.5668
    -2.3936  -2.3448  -2.2012  -2.0986  -2.0753  -2.0012  -1.8889  -1.8222
    -1.7275  -1.6342  -1.6187  -1.5064  -1.4495  -1.2227  -1.1041  -1.0098
    -0.9849  -0.9616  -0.9273  -0.8971  -0.7634  -0.7131  -0.6152  -0.5339
    -0.4552  -0.2919  -0.1698  -0.0714   0.0466   0.4494   1.0225   1.0666
     1.1957   1.2813   1.5073   1.5700   1.7205   1.8118   1.9570   2.1053
     2.1855   2.4117   2.4306   2.8277   2.9041   2.9721   3.0891   3.2921
     3.6406   3.8347   4.1000   4.1912

          k = 0.0000 1.7738 0.0000 ( 78629 PWs)   bands (ev):

  -104.7180-102.8628-102.8196-102.8047-102.6562-102.4831 -68.1677 -68.1496
   -67.9388 -67.9054 -65.3024 -65.2732 -65.0128 -63.4232 -63.4157 -63.3468
   -63.2921 -63.2561 -63.2546 -63.2136 -63.1680 -63.1031 -63.0530 -63.0390
   -62.9718 -62.9469 -62.9205 -62.7782 -35.8235 -34.8369 -34.6662 -34.6521
   -34.6405 -34.6259 -34.6152 -34.5925 -34.5924 -34.4775 -34.3688 -34.1641
   -16.1140 -13.1435 -11.7736 -11.2063 -11.0719 -11.0326 -10.9671 -10.7500
   -10.6318 -10.5769  -7.7917  -7.5862  -7.1485  -6.6389  -5.9087  -5.6463
    -5.3930  -5.2680  -5.1657  -5.0852  -4.9430  -4.6513  -4.4128  -4.2888
    -4.1909  -4.0944  -3.8794  -3.6889  -3.5803  -3.5354  -3.4673  -3.3930
    -3.2559  -3.1334  -3.0464  -2.9605  -2.8547  -2.8288  -2.7379  -2.5491
    -2.4879  -2.3685  -2.2837  -2.1662  -2.0471  -2.0006  -1.9587  -1.8251
    -1.7268  -1.6745  -1.6545  -1.6193  -1.4953  -1.3393  -1.2119  -1.1751
    -1.0989  -1.0205  -0.9547  -0.8924  -0.8555  -0.7668  -0.6830  -0.6449
    -0.5334  -0.3757  -0.3402  -0.2051  -0.0612   0.2417   0.8416   1.0165
     1.1642   1.5139   1.5921   1.6012   1.7543   2.0201   2.1933   2.3392
     2.4011   2.5980   2.6779   2.8563   3.0629   3.1506   3.3628   3.4637
     3.5630   3.6979   3.8755   4.0322

          k = 0.0000-2.2173 0.0000 ( 78550 PWs)   bands (ev):

  -104.7180-102.8627-102.8194-102.8049-102.6562-102.4831 -68.1676 -68.1494
   -67.9395 -67.9141 -65.3007 -65.2584 -65.0172 -63.4232 -63.4157 -63.3468
   -63.2923 -63.2554 -63.2529 -63.2159 -63.1687 -63.1016 -63.0534 -63.0384
   -62.9718 -62.9469 -62.9205 -62.7779 -35.8232 -34.8502 -34.6731 -34.6590
   -34.6399 -34.6253 -34.6142 -34.5996 -34.5914 -34.4763 -34.3674 -34.1593
   -16.0590 -12.5326 -12.3371 -11.0202 -10.9345 -10.9043 -10.8709 -10.7603
   -10.5547 -10.5538  -7.7745  -7.7223  -7.3222  -6.6600  -5.8980  -5.6528
    -5.6307  -5.4681  -5.3099  -5.2312  -5.0437  -4.6751  -4.4311  -4.2733
    -4.2729  -3.9597  -3.7779  -3.7324  -3.6325  -3.5379  -3.4404  -3.2966
    -3.1538  -3.0985  -3.0573  -3.0104  -2.9761  -2.7195  -2.6772  -2.5736
    -2.4733  -2.4223  -2.2663  -2.1284  -2.0264  -2.0118  -1.9524  -1.7805
    -1.7198  -1.6914  -1.6572  -1.6449  -1.4445  -1.3972  -1.3956  -1.2936
    -1.1129  -1.0602  -0.9935  -0.9368  -0.8422  -0.7387  -0.7029  -0.6885
    -0.5939  -0.4553  -0.4475  -0.1797  -0.0259   0.0556   0.7547   0.9231
     1.2288   1.3133   1.6089   1.6417   1.7597   2.1714   2.2077   2.5593
     2.5758   2.6762   2.8527   2.9209   3.0194   3.3567   3.3802   3.5558
     3.6076   3.8987   3.9201   4.0073

          k =-0.5000 0.0000 0.0000 ( 78900 PWs)   bands (ev):

  -104.7180-102.8629-102.8214-102.8030-102.6561-102.4831 -68.1692 -68.1511
   -67.9389 -67.8113 -65.4224 -65.2971 -64.9863 -63.4231 -63.4154 -63.3463
   -63.2894 -63.2639 -63.2604 -63.1924 -63.1619 -63.1188 -63.0501 -63.0430
   -62.9718 -62.9470 -62.9212 -62.7782 -35.8260 -34.7011 -34.6467 -34.6318
   -34.6247 -34.6023 -34.6001 -34.5859 -34.5238 -34.4941 -34.3824 -34.2128
   -16.5950 -14.5919 -12.3842 -12.0284 -11.7572 -11.6004 -11.3133 -11.2816
   -11.0642 -10.8152  -7.6127  -7.1043  -6.5465  -6.3141  -5.7069  -5.5184
    -5.2044  -4.9456  -4.7321  -4.6521  -4.4717  -4.2462  -4.2294  -4.0581
    -3.7313  -3.6653  -3.6067  -3.2592  -3.1777  -3.1597  -3.1543  -3.1178
    -3.0776  -2.9042  -2.7820  -2.6857  -2.6485  -2.4376  -2.2762  -2.2665
    -2.1828  -2.0279  -1.9638  -1.8749  -1.6288  -1.6081  -1.5257  -1.5134
    -1.4406  -1.3791  -1.3117  -1.2891  -1.1677  -1.1499  -1.0190  -1.0027
    -0.8377  -0.7750  -0.7427  -0.6907  -0.6708  -0.5289  -0.3858  -0.1521
    -0.1276  -0.0426  -0.0126   0.2258   0.3798   0.4172   0.4301   0.6459
     1.0201   1.2718   1.3939   1.5516   1.5530   1.8443   1.9474   2.1432
     2.2056   2.6635   2.7784   2.8565   2.9238   3.3277   3.5369   3.5848
     3.8010   3.8981   3.9911   4.1805

          k =-0.5000 0.4435 0.0000 ( 78868 PWs)   bands (ev):

  -104.7180-102.8629-102.8212-102.8031-102.6561-102.4831 -68.1691 -68.1509
   -67.9388 -67.8218 -65.4078 -65.2969 -64.9883 -63.4232 -63.4155 -63.3464
   -63.2897 -63.2632 -63.2599 -63.1946 -63.1625 -63.1169 -63.0503 -63.0426
   -62.9718 -62.9469 -62.9211 -62.7782 -35.8257 -34.7167 -34.6460 -34.6312
   -34.6237 -34.6071 -34.6013 -34.5929 -34.5311 -34.4916 -34.3809 -34.2073
   -16.5471 -14.4967 -12.2930 -11.9433 -11.6856 -11.5523 -11.2585 -11.2476
   -11.0304 -10.7874  -7.5445  -7.1917  -6.5139  -6.2252  -5.6685  -5.4408
    -5.1709  -5.0054  -4.8606  -4.6845  -4.5801  -4.4922  -4.2919  -3.9990
    -3.8510  -3.6929  -3.6031  -3.3408  -3.2797  -3.2153  -3.1698  -3.1156
    -3.0565  -2.9283  -2.8177  -2.7264  -2.5710  -2.4330  -2.4006  -2.3474
    -2.2157  -2.1147  -2.0878  -1.9033  -1.7171  -1.6825  -1.5842  -1.5307
    -1.4894  -1.4218  -1.4049  -1.3639  -1.2475  -1.2082  -1.0117  -0.9880
    -0.8769  -0.8260  -0.7550  -0.7213  -0.6684  -0.5953  -0.3948  -0.2250
    -0.1496  -0.1218   0.0220   0.1535   0.3176   0.5585   0.6049   0.6851
     0.9179   1.1928   1.3951   1.5083   1.6560   1.7411   1.8686   2.0841
     2.1527   2.3034   2.5624   2.8893   3.0362   3.1507   3.2875   3.4230
     3.5413   3.8251   3.8873   4.0540

          k =-0.5000 0.8869 0.0000 ( 78876 PWs)   bands (ev):

  -104.7180-102.8629-102.8208-102.8036-102.6561-102.4831 -68.1687 -68.1505
   -67.9385 -67.8487 -65.3696 -65.2963 -64.9942 -63.4232 -63.4156 -63.3466
   -63.2905 -63.2612 -63.2589 -63.2004 -63.1643 -63.1124 -63.0511 -63.0415
   -62.9719 -62.9470 -62.9210 -62.7783 -35.8250 -34.7557 -34.6444 -34.6296
   -34.6255 -34.6210 -34.6113 -34.5985 -34.5502 -34.4863 -34.3769 -34.1934
   -16.4189 -14.2135 -12.0325 -11.7044 -11.4963 -11.4164 -11.1892 -11.1064
   -10.9354 -10.7199  -7.5241  -7.2163  -6.5215  -6.2232  -5.9121  -5.5889
    -5.2327  -5.0568  -4.8628  -4.7016  -4.5805  -4.3670  -4.2203  -4.0686
    -3.9303  -3.8382  -3.7119  -3.6298  -3.4857  -3.4143  -3.3378  -3.3042
    -3.1291  -3.0129  -2.9550  -2.8932  -2.7206  -2.6143  -2.4740  -2.4450
    -2.3528  -2.2733  -2.1500  -2.0094  -1.9833  -1.9102  -1.8307  -1.7198
    -1.5500  -1.5306  -1.4835  -1.4436  -1.2610  -1.1993  -1.1422  -1.0316
    -0.9768  -0.8682  -0.8632  -0.8045  -0.6346  -0.5785  -0.4957  -0.4306
    -0.3054  -0.1807   0.0843   0.0968   0.2193   0.5635   0.5865   0.8956
     1.1991   1.2524   1.3462   1.5080   1.6798   1.7877   1.8131   1.9455
     2.1108   2.2200   2.4717   2.6984   2.8629   2.9288   3.0161   3.1704
     3.6666   4.0869   4.2703   4.3447

          k =-0.5000 1.3304 0.0000 ( 78766 PWs)   bands (ev):

  -104.7180-102.8628-102.8202-102.8042-102.6562-102.4831 -68.1681 -68.1500
   -67.9384 -67.8807 -65.3236 -65.2933 -65.0032 -63.4232 -63.4156 -63.3466
   -63.2914 -63.2581 -63.2574 -63.2076 -63.1664 -63.1072 -63.0521 -63.0402
   -62.9718 -62.9469 -62.9207 -62.7784 -35.8242 -34.8014 -34.6482 -34.6421
   -34.6340 -34.6274 -34.6178 -34.5952 -34.5737 -34.4811 -34.3723 -34.1770
   -16.2538 -13.7531 -11.6520 -11.3983 -11.3464 -11.1988 -11.1659 -10.9110
   -10.7901 -10.6395  -7.6958  -7.2095  -6.9644  -6.4691  -5.9106  -5.6312
    -5.3092  -5.0668  -4.8862  -4.6705  -4.5691  -4.4667  -4.2759  -4.1881
    -4.1131  -4.0484  -3.9473  -3.8747  -3.7266  -3.5234  -3.4449  -3.3393
    -3.2480  -3.1749  -3.1128  -2.9875  -2.7631  -2.6672  -2.6267  -2.5363
    -2.4487  -2.3806  -2.2103  -2.1650  -2.0604  -2.0057  -1.9612  -1.8491
    -1.6610  -1.6234  -1.6067  -1.5793  -1.3990  -1.2494  -1.1191  -1.0447
    -0.9999  -0.9514  -0.9311  -0.8601  -0.7391  -0.6444  -0.6043  -0.5464
    -0.4962  -0.3372  -0.1682  -0.1005   0.0374   0.4814   0.9694   1.1267
     1.2228   1.4054   1.5568   1.6060   1.7133   1.7607   1.8197   2.1461
     2.2706   2.3982   2.5256   2.5843   2.8461   3.0271   3.1759   3.2864
     3.6938   3.8493   4.0419   4.2623

          k =-0.5000 1.7738 0.0000 ( 78600 PWs)   bands (ev):

  -104.7180-102.8628-102.8196-102.8047-102.6562-102.4831 -68.1677 -68.1496
   -67.9388 -67.9054 -65.3023 -65.2732 -65.0127 -63.4231 -63.4156 -63.3467
   -63.2920 -63.2561 -63.2546 -63.2136 -63.1680 -63.1031 -63.0529 -63.0390
   -62.9718 -62.9468 -62.9205 -62.7782 -35.8235 -34.8369 -34.6662 -34.6521
   -34.6405 -34.6259 -34.6151 -34.5925 -34.5924 -34.4775 -34.3688 -34.1641
   -16.1140 -13.1435 -11.7739 -11.2145 -11.0600 -11.0317 -10.9627 -10.7604
   -10.6327 -10.5748  -7.7915  -7.5867  -7.1486  -6.6393  -5.8968  -5.6223
    -5.3365  -5.3265  -5.2489  -5.0687  -4.9114  -4.6586  -4.4272  -4.3071
    -4.1589  -4.1044  -3.8614  -3.6990  -3.6258  -3.5280  -3.4877  -3.3511
    -3.2445  -3.1384  -3.0005  -2.9207  -2.8832  -2.8187  -2.7865  -2.5489
    -2.3748  -2.3000  -2.2600  -2.2179  -2.1259  -2.0369  -1.9279  -1.8772
    -1.7443  -1.7065  -1.6473  -1.6003  -1.5038  -1.3690  -1.2323  -1.1475
    -1.0836  -1.0298  -0.9455  -0.8953  -0.8413  -0.7206  -0.6695  -0.6125
    -0.6027  -0.4128  -0.3338  -0.2786  -0.0432   0.2765   0.8395   1.0037
     1.1763   1.4388   1.5705   1.8693   1.9884   2.0109   2.1567   2.1830
     2.3826   2.5353   2.6420   2.8847   3.0219   3.0524   3.2683   3.4990
     3.7146   3.7680   3.7812   3.9012

          k =-0.5000-2.2173 0.0000 ( 78444 PWs)   bands (ev):

  -104.7180-102.8627-102.8194-102.8049-102.6562-102.4831 -68.1676 -68.1494
   -67.9395 -67.9141 -65.3005 -65.2584 -65.0171 -63.4231 -63.4155 -63.3467
   -63.2922 -63.2554 -63.2529 -63.2159 -63.1686 -63.1015 -63.0533 -63.0384
   -62.9717 -62.9468 -62.9204 -62.7780 -35.8232 -34.8502 -34.6731 -34.6590
   -34.6399 -34.6253 -34.6142 -34.5996 -34.5914 -34.4763 -34.3674 -34.1593
   -16.0590 -12.5326 -12.3371 -11.0202 -10.9346 -10.9045 -10.8713 -10.7614
   -10.5539 -10.5521  -7.7746  -7.7251  -7.3256  -6.6643  -5.8760  -5.6388
    -5.5218  -5.4598  -5.4340  -5.2684  -5.0364  -4.6736  -4.5103  -4.2688
    -4.1459  -4.0183  -3.7721  -3.7445  -3.6436  -3.5435  -3.3859  -3.2930
    -3.1474  -3.1454  -3.0434  -3.0055  -3.0002  -2.7889  -2.7446  -2.4345
    -2.4148  -2.2980  -2.1954  -2.1724  -2.0682  -2.0507  -1.9248  -1.8690
    -1.7447  -1.7102  -1.6937  -1.6045  -1.4640  -1.4203  -1.3651  -1.3233
    -1.0985  -1.0702  -1.0187  -0.8516  -0.8200  -0.7775  -0.7470  -0.6540
    -0.6370  -0.4467  -0.4276  -0.2550  -0.0058   0.1364   0.7578   0.8750
     1.2212   1.2467   1.5981   1.7703   2.0594   2.1120   2.1827   2.4830
     2.5844   2.6977   2.8171   2.8603   2.9161   3.2350   3.3010   3.5250
     3.6521   3.7998   3.9974   4.0638

     the Fermi energy is     0.5447 ev

!    total energy              =   -9107.46949199 Ry
     total all-electron energy =     -9107.469492 Ry
     estimated scf accuracy    <          1.4E-09 Ry
     smearing contrib. (-TS)   =      -0.00033571 Ry
     internal energy E=F+TS    =   -9107.46915628 Ry

     The total energy is F=E-TS. E is the sum of the following terms:
     one-electron contribution =  -17715.97553433 Ry
     hartree contribution      =    8719.17911315 Ry
     xc contribution           =    -367.51100618 Ry
     ewald contribution        =    6524.73484585 Ry
     one-center paw contrib.   =   -6267.89657477 Ry

     convergence has been achieved in  30 iterations

     negative rho (up, down):  6.883E-02 0.000E+00

     Forces acting on atoms (cartesian axes, Ry/au):

     atom    1 type  1   force =    -1.38050019    0.00000000    1.93181558
     atom    2 type  1   force =    -0.00008120    0.00000000   -0.00348296
     atom    3 type  1   force =     0.03406113    0.00000000   -0.01360992
     atom    4 type  1   force =    -0.00237694    0.00000000   -0.00154246
     atom    5 type  2   force =    -0.01417199    0.00000000   -0.00828843
     atom    6 type  2   force =     0.01146908    0.00000000   -0.01526877
     atom    7 type  2   force =     0.00532032    0.00000000   -0.00273153
     atom    8 type  2   force =    -0.03514500    0.00000000   -0.00545386
     atom    9 type  2   force =    -0.00076623    0.00000000    0.00305958
     atom   10 type  2   force =     0.42261393    0.00000000   -0.62569067
     atom   11 type  3   force =    -0.21342577    0.00000000   -0.05887382
     atom   12 type  3   force =    -0.00515925    0.00000000    0.00353611
     atom   13 type  3   force =     0.00250592    0.00000000   -0.00110283
     atom   14 type  3   force =     0.84701320    0.00000000    0.09970073
     atom   15 type  3   force =    -0.00913599    0.00000000    0.00046129
     atom   16 type  3   force =     0.00748352    0.00000000    0.00275517
     atom   17 type  3   force =    -0.00090201    0.00000000   -0.00004293
     atom   18 type  3   force =    -0.93444420    0.00000000    0.84047852
     atom   19 type  3   force =     1.26546314    0.00000000   -2.14746984
     atom   20 type  3   force =     0.00017850    0.00000000    0.00175104

     Total force =     3.844515     Total SCF correction =     0.000120


     Computing stress (Cartesian axis) and pressure


     negative rho (up, down):  6.883E-02 0.000E+00
          total   stress  (Ry/bohr**3)                   (kbar)     P=       97.67
   0.00067342   0.00000000  -0.00032135           99.06        0.00      -47.27
   0.00000000   0.00034836   0.00000000            0.00       51.25        0.00
  -0.00032135   0.00000000   0.00097012          -47.27        0.00      142.71


     BFGS Geometry Optimization
     Energy error            =      0.0E+00 Ry
     Gradient error          =      2.1E+00 Ry/Bohr

     number of scf cycles    =   1
     number of bfgs steps    =   0

     energy             new  =   -9107.4694919910 Ry

     new trust radius        =       0.5000000000 bohr
     new conv_thr            =       0.0000000100 Ry


ATOMIC_POSITIONS (angstrom)
Ta              15.2453008547        0.9149235643       12.6489022849
Ta               6.5715418942        2.7447696811       12.5916266182
Ta               2.2687712001        0.9149235643       12.4422212690
Ta              11.0852010350        2.7447696811       12.5919927559
Ni              12.8629038032        0.9149235643       11.7608097792
Ni               4.0453175679        2.7447696811       13.2725231730
Ni               4.7930314755        0.9149235643       11.7611330063
Ni              13.6090299754        2.7447696811       13.2738220823
Ni               8.8282653311        0.9149235643       12.3685303706
Ni               0.0529373335        2.7447696811       12.6011928029
Te              14.1903872489        2.7447696811       10.5290073001
Te               5.3921742006        0.9149235643       14.5009474633
Te              10.5956991213        0.9149235643       10.5192168105
Te               1.8650604596        2.7447696811       14.5270781798
Te               3.4427189079        2.7447696811       10.5350825075
Te              12.2647839116        0.9149235643       14.5010850095
Te               7.0615226739        0.9149235643       10.5191667149
Te              15.7827107384        2.7447696811       14.6058838474
Te               0.1426277218        0.9149235643       10.6096653333
Te               8.8285769087        2.7447696811       14.1983636913



     Writing config-only to output data dir /ddn/data/physics/eamoujaes/2D-Ta2Ni3Te5/ELASTIC/OUT/ta2ni3te5.save/ :
     XML data file
     NEW-OLD atomic charge density approx. for the potential

     negative rho (up, down):  6.835E-02 0.000E+00

     total cpu time spent up to now is     1266.9 secs

     Self-consistent Calculation

     iteration #  1     ecut=    60.00 Ry     beta= 0.20
     Davidson diagonalization with overlap
     c_bands:  2 eigenvalues not converged
     c_bands:  2 eigenvalues not converged
     c_bands:  1 eigenvalues not converged
     c_bands:  2 eigenvalues not converged
     c_bands:  1 eigenvalues not converged
     c_bands:  2 eigenvalues not converged
     c_bands:  1 eigenvalues not converged
     c_bands:  1 eigenvalues not converged
     c_bands:  2 eigenvalues not converged
     c_bands:  2 eigenvalues not converged
     ethr =  1.00E-06,  avg # of iterations = 19.7

     negative rho (up, down):  6.778E-02 0.000E+00

     total cpu time spent up to now is     1310.2 secs

     total energy              =   -9108.82787410 Ry
     estimated scf accuracy    <       0.59744164 Ry

     iteration #  2     ecut=    60.00 Ry     beta= 0.20
     Davidson diagonalization with overlap
     ethr =  2.72E-04,  avg # of iterations =  4.1

     negative rho (up, down):  6.765E-02 0.000E+00

     total cpu time spent up to now is     1347.4 secs

     total energy              =   -9108.87639761 Ry
     estimated scf accuracy    <       1.98671847 Ry

     iteration #  3     ecut=    60.00 Ry     beta= 0.20
     Davidson diagonalization with overlap
     ethr =  2.72E-04,  avg # of iterations =  2.2

     negative rho (up, down):  6.750E-02 0.000E+00

     total cpu time spent up to now is     1384.2 secs

     total energy              =   -9108.98016153 Ry
     estimated scf accuracy    <       0.74776947 Ry

     iteration #  4     ecut=    60.00 Ry     beta= 0.20
     Davidson diagonalization with overlap
     ethr =  2.72E-04,  avg # of iterations =  1.0

     negative rho (up, down):  6.728E-02 0.000E+00

     total cpu time spent up to now is     1420.5 secs

     total energy              =   -9109.00770334 Ry
     estimated scf accuracy    <       0.11084049 Ry

     iteration #  5     ecut=    60.00 Ry     beta= 0.20
     Davidson diagonalization with overlap
     ethr =  5.04E-05,  avg # of iterations =  1.1

     negative rho (up, down):  6.695E-02 0.000E+00

     total cpu time spent up to now is     1457.0 secs

     total energy              =   -9109.00096115 Ry
     estimated scf accuracy    <       0.03358147 Ry

     iteration #  6     ecut=    60.00 Ry     beta= 0.20
     Davidson diagonalization with overlap
     ethr =  1.53E-05,  avg # of iterations =  2.0

     negative rho (up, down):  6.671E-02 0.000E+00

     total cpu time spent up to now is     1494.0 secs

     total energy              =   -9108.99456446 Ry
     estimated scf accuracy    <       0.02996497 Ry

     iteration #  7     ecut=    60.00 Ry     beta= 0.20
     Davidson diagonalization with overlap
     ethr =  1.36E-05,  avg # of iterations =  1.3

     negative rho (up, down):  6.649E-02 0.000E+00

     total cpu time spent up to now is     1530.8 secs

     total energy              =   -9108.98883043 Ry
     estimated scf accuracy    <       0.02577845 Ry

     iteration #  8     ecut=    60.00 Ry     beta= 0.20
     Davidson diagonalization with overlap
     ethr =  1.17E-05,  avg # of iterations =  1.2

     negative rho (up, down):  6.621E-02 0.000E+00

     total cpu time spent up to now is     1567.8 secs

     total energy              =   -9108.98364772 Ry
     estimated scf accuracy    <       0.01504026 Ry

     iteration #  9     ecut=    60.00 Ry     beta= 0.20
     Davidson diagonalization with overlap
     ethr =  6.84E-06,  avg # of iterations =  2.9

     negative rho (up, down):  6.602E-02 0.000E+00

     total cpu time spent up to now is     1604.6 secs

     total energy              =   -9108.98188795 Ry
     estimated scf accuracy    <       0.00463491 Ry

     iteration # 10     ecut=    60.00 Ry     beta= 0.20
     Davidson diagonalization with overlap
     c_bands:  1 eigenvalues not converged
     c_bands:  1 eigenvalues not converged
     c_bands:  1 eigenvalues not converged
     c_bands:  2 eigenvalues not converged
     c_bands:  1 eigenvalues not converged
     ethr =  2.11E-06,  avg # of iterations = 12.3

     negative rho (up, down):  6.581E-02 0.000E+00

     total cpu time spent up to now is     1642.8 secs

     total energy              =   -9108.98100276 Ry
     estimated scf accuracy    <       0.00127934 Ry

     iteration # 11     ecut=    60.00 Ry     beta= 0.20
     Davidson diagonalization with overlap
     c_bands:  1 eigenvalues not converged
     c_bands:  1 eigenvalues not converged
     ethr =  5.82E-07,  avg # of iterations =  7.3

     negative rho (up, down):  6.578E-02 0.000E+00

     total cpu time spent up to now is     1680.6 secs

     total energy              =   -9108.98109196 Ry
     estimated scf accuracy    <       0.00016386 Ry

     iteration # 12     ecut=    60.00 Ry     beta= 0.20
     Davidson diagonalization with overlap
     ethr =  7.45E-08,  avg # of iterations =  3.3

     negative rho (up, down):  6.570E-02 0.000E+00

     total cpu time spent up to now is     1717.4 secs

     total energy              =   -9108.98098212 Ry
     estimated scf accuracy    <       0.00015762 Ry

     iteration # 13     ecut=    60.00 Ry     beta= 0.20
     Davidson diagonalization with overlap
     ethr =  7.16E-08,  avg # of iterations =  2.0

     negative rho (up, down):  6.568E-02 0.000E+00

     total cpu time spent up to now is     1754.4 secs

     total energy              =   -9108.98099235 Ry
     estimated scf accuracy    <       0.00008414 Ry

     iteration # 14     ecut=    60.00 Ry     beta= 0.20
     Davidson diagonalization with overlap
     ethr =  3.82E-08,  avg # of iterations =  1.1

     negative rho (up, down):  6.565E-02 0.000E+00

     total cpu time spent up to now is     1791.3 secs

     total energy              =   -9108.98100035 Ry
     estimated scf accuracy    <       0.00002066 Ry

     iteration # 15     ecut=    60.00 Ry     beta= 0.20
     Davidson diagonalization with overlap
     ethr =  9.39E-09,  avg # of iterations =  2.2

     negative rho (up, down):  6.566E-02 0.000E+00

     total cpu time spent up to now is     1828.4 secs

     total energy              =   -9108.98099918 Ry
     estimated scf accuracy    <       0.00001552 Ry

     iteration # 16     ecut=    60.00 Ry     beta= 0.20
     Davidson diagonalization with overlap
     ethr =  7.05E-09,  avg # of iterations =  1.5

     negative rho (up, down):  6.567E-02 0.000E+00

     total cpu time spent up to now is     1865.2 secs

     total energy              =   -9108.98099914 Ry
     estimated scf accuracy    <       0.00000374 Ry

     iteration # 17     ecut=    60.00 Ry     beta= 0.20
     Davidson diagonalization with overlap
     ethr =  1.70E-09,  avg # of iterations =  2.0

     negative rho (up, down):  6.567E-02 0.000E+00

     total cpu time spent up to now is     1901.9 secs

     total energy              =   -9108.98099961 Ry
     estimated scf accuracy    <       0.00000087 Ry

     iteration # 18     ecut=    60.00 Ry     beta= 0.20
     Davidson diagonalization with overlap
     ethr =  3.95E-10,  avg # of iterations =  2.3

     negative rho (up, down):  6.567E-02 0.000E+00

     total cpu time spent up to now is     1938.8 secs

     total energy              =   -9108.98099969 Ry
     estimated scf accuracy    <       0.00000081 Ry

     iteration # 19     ecut=    60.00 Ry     beta= 0.20
     Davidson diagonalization with overlap
     ethr =  3.67E-10,  avg # of iterations =  1.4

     negative rho (up, down):  6.567E-02 0.000E+00

     total cpu time spent up to now is     1975.8 secs

     total energy              =   -9108.98099971 Ry
     estimated scf accuracy    <       0.00000057 Ry

     iteration # 20     ecut=    60.00 Ry     beta= 0.20
     Davidson diagonalization with overlap
     ethr =  2.58E-10,  avg # of iterations =  1.6

     negative rho (up, down):  6.567E-02 0.000E+00

     total cpu time spent up to now is     2013.0 secs

     total energy              =   -9108.98099980 Ry
     estimated scf accuracy    <       0.00000042 Ry

     iteration # 21     ecut=    60.00 Ry     beta= 0.20
     Davidson diagonalization with overlap
     ethr =  1.91E-10,  avg # of iterations =  1.1

     negative rho (up, down):  6.567E-02 0.000E+00

     total cpu time spent up to now is     2049.5 secs

     total energy              =   -9108.98099980 Ry
     estimated scf accuracy    <       0.00000012 Ry

     iteration # 22     ecut=    60.00 Ry     beta= 0.20
     Davidson diagonalization with overlap
     ethr =  5.29E-11,  avg # of iterations =  2.0

     negative rho (up, down):  6.567E-02 0.000E+00

     total cpu time spent up to now is     2086.1 secs

     total energy              =   -9108.98099980 Ry
     estimated scf accuracy    <       0.00000003 Ry

     iteration # 23     ecut=    60.00 Ry     beta= 0.20
     Davidson diagonalization with overlap
     ethr =  1.50E-11,  avg # of iterations =  3.9

     negative rho (up, down):  6.567E-02 0.000E+00

     total cpu time spent up to now is     2123.3 secs

     total energy              =   -9108.98099980 Ry
     estimated scf accuracy    <       0.00000002 Ry

     iteration # 24     ecut=    60.00 Ry     beta= 0.20
     Davidson diagonalization with overlap
     ethr =  8.21E-12,  avg # of iterations =  2.0

     negative rho (up, down):  6.567E-02 0.000E+00

     total cpu time spent up to now is     2159.8 secs

     End of self-consistent calculation

          k = 0.0000 0.0000 0.0000 ( 78943 PWs)   bands (ev):

  -104.1162-102.8841-102.8512-102.8149-102.7871-102.4678 -68.1461 -68.1015
   -67.9163 -67.4316 -64.7494 -64.5584 -64.4634 -63.4904 -63.4704 -63.4018
   -63.3623 -63.3176 -63.2587 -63.2450 -63.1654 -63.1453 -63.1005 -63.0603
   -63.0420 -62.9542 -62.9358 -62.7602 -34.6236 -34.6015 -34.5886 -34.5779
   -34.5492 -34.5427 -34.4780 -34.4084 -34.3822 -34.3714 -34.3214 -34.0526
   -15.3859 -14.0289 -12.3292 -12.1845 -11.6842 -11.5297 -11.3414 -11.2967
   -10.9869 -10.8845  -7.3854  -6.2079  -5.8229  -5.5500  -5.5286  -5.3469
    -5.1877  -4.9765  -4.7513  -4.5145  -4.2837  -4.0152  -3.9674  -3.7589
    -3.5205  -3.4276  -3.4263  -3.2841  -3.2523  -3.1670  -3.1040  -3.0148
    -2.9747  -2.7172  -2.5986  -2.5808  -2.4923  -2.3574  -2.2088  -2.1248
    -2.0538  -2.0462  -1.9134  -1.7470  -1.6393  -1.6204  -1.5211  -1.4872
    -1.4186  -1.3424  -1.2884  -1.2259  -1.1301  -1.0502  -1.0027  -0.8466
    -0.8353  -0.7808  -0.6992  -0.6913  -0.6490  -0.3956  -0.3877  -0.2739
    -0.1709   0.0001   0.1237   0.3421   0.4018   0.4083   0.5386   0.6694
     1.2461   1.2491   1.3995   1.4312   1.7458   1.9461   2.1596   2.1761
     2.5513   2.6062   2.6570   2.8831   2.9388   3.2203   3.3405   3.6458
     3.7963   3.8383   3.8549   3.9300

          k = 0.0000 0.4435 0.0000 ( 78835 PWs)   bands (ev):

  -104.1162-102.8840-102.8513-102.8148-102.7872-102.4678 -68.1459 -68.1014
   -67.9161 -67.4355 -64.7430 -64.5593 -64.4637 -63.4905 -63.4704 -63.4017
   -63.3623 -63.3165 -63.2606 -63.2443 -63.1677 -63.1441 -63.0983 -63.0603
   -63.0422 -62.9541 -62.9356 -62.7601 -34.6229 -34.6006 -34.5879 -34.5849
   -34.5499 -34.5479 -34.4855 -34.4082 -34.3830 -34.3786 -34.3205 -34.0489
   -15.3305 -13.9380 -12.2383 -12.0970 -11.6181 -11.4850 -11.2846 -11.2373
   -10.9526 -10.8683  -7.2872  -6.1671  -5.8671  -5.6045  -5.4672  -5.2748
    -5.0871  -4.8969  -4.6860  -4.5056  -4.2372  -4.1217  -3.9347  -3.7932
    -3.7305  -3.5601  -3.4104  -3.3617  -3.3178  -3.2200  -3.1762  -3.1176
    -2.9784  -2.8713  -2.7555  -2.6015  -2.4661  -2.4015  -2.3343  -2.2653
    -2.1854  -2.0469  -1.9702  -1.8465  -1.7401  -1.6988  -1.6371  -1.5582
    -1.4986  -1.3944  -1.3295  -1.3002  -1.2800  -1.1810  -0.9865  -0.9680
    -0.8686  -0.8142  -0.7581  -0.6584  -0.5346  -0.4783  -0.3836  -0.2674
    -0.1697  -0.0345   0.0645   0.1988   0.4092   0.5118   0.6891   0.7451
     1.0567   1.2693   1.3405   1.5541   1.6812   1.9736   1.9970   2.1533
     2.3810   2.4898   2.5313   2.7270   2.8706   3.1261   3.2077   3.3588
     3.6063   3.7335   3.9139   4.0749

          k = 0.0000 0.8869 0.0000 ( 78769 PWs)   bands (ev):

  -104.1162-102.8837-102.8515-102.8145-102.7875-102.4678 -68.1455 -68.1010
   -67.9157 -67.4457 -64.7261 -64.5623 -64.4651 -63.4906 -63.4704 -63.4017
   -63.3624 -63.3133 -63.2660 -63.2427 -63.1734 -63.1413 -63.0931 -63.0606
   -63.0433 -62.9541 -62.9356 -62.7602 -34.6211 -34.6032 -34.5980 -34.5863
   -34.5681 -34.5454 -34.5049 -34.4144 -34.3980 -34.3773 -34.3180 -34.0392
   -15.1823 -13.6670 -11.9789 -11.8485 -11.4421 -11.3629 -11.1307 -11.0738
   -10.8647 -10.8458  -7.0373  -6.2174  -5.8973  -5.6460  -5.3216  -5.2600
    -4.9615  -4.8292  -4.6399  -4.5672  -4.3606  -4.2163  -4.0672  -3.9343
    -3.8565  -3.7102  -3.6260  -3.5743  -3.5652  -3.3738  -3.2518  -3.1602
    -3.1302  -2.9598  -2.8765  -2.8108  -2.7272  -2.5815  -2.4860  -2.3573
    -2.2894  -2.2607  -2.0963  -2.0244  -1.9542  -1.8065  -1.7244  -1.7113
    -1.7064  -1.5262  -1.4831  -1.4421  -1.3499  -1.2657  -1.1952  -1.1175
    -1.0164  -0.9232  -0.8477  -0.6214  -0.5976  -0.5391  -0.4624  -0.4335
    -0.2790  -0.1581  -0.0134   0.1507   0.2542   0.4127   0.7862   1.0170
     1.1743   1.3486   1.4309   1.5043   1.5996   1.7919   1.8970   2.0513
     2.1325   2.3902   2.5793   2.5991   2.8133   2.9032   3.0803   3.2657
     3.7016   3.9053   4.2788   4.2995

          k = 0.0000 1.3304 0.0000 ( 78735 PWs)   bands (ev):

  -104.1161-102.8834-102.8518-102.8141-102.7879-102.4678 -68.1450 -68.1005
   -67.9152 -67.4580 -64.7040 -64.5672 -64.4670 -63.4910 -63.4707 -63.4018
   -63.3626 -63.3080 -63.2738 -63.2402 -63.1803 -63.1379 -63.0871 -63.0611
   -63.0448 -62.9541 -62.9357 -62.7602 -34.6260 -34.6186 -34.5948 -34.5909
   -34.5842 -34.5420 -34.5289 -34.4411 -34.3989 -34.3737 -34.3149 -34.0277
   -14.9921 -13.2248 -11.5955 -11.4893 -11.2489 -11.1919 -10.9997 -10.8666
   -10.8225 -10.7484  -6.8212  -6.4389  -6.1846  -5.7185  -5.5408  -5.3074
    -5.0121  -4.8099  -4.6429  -4.6150  -4.4574  -4.3746  -4.2085  -4.0851
    -4.0326  -3.9307  -3.7717  -3.7125  -3.5867  -3.5288  -3.4128  -3.3533
    -3.1993  -3.0752  -2.9865  -2.8923  -2.8012  -2.7504  -2.6274  -2.5049
    -2.3256  -2.3030  -2.2479  -2.1013  -2.0273  -1.9830  -1.7914  -1.7493
    -1.6878  -1.6489  -1.6294  -1.5570  -1.4947  -1.4440  -1.1743  -1.1209
    -1.0540  -1.0191  -0.9440  -0.8912  -0.7796  -0.7055  -0.5924  -0.5468
    -0.4654  -0.2813  -0.1209  -0.0411   0.1053   0.2705   0.8493   1.0343
     1.1090   1.3870   1.5629   1.6430   1.7410   1.8318   1.9485   2.1682
     2.2890   2.4257   2.6364   2.7022   2.8750   3.0024   3.1316   3.4038
     3.6698   3.7765   4.0560   4.1264

          k = 0.0000 1.7738 0.0000 ( 78629 PWs)   bands (ev):

  -104.1161-102.8831-102.8521-102.8137-102.7882-102.4678 -68.1446 -68.1000
   -67.9147 -67.4680 -64.6844 -64.5727 -64.4685 -63.4913 -63.4709 -63.4019
   -63.3628 -63.3007 -63.2827 -63.2376 -63.1857 -63.1353 -63.0824 -63.0614
   -63.0462 -62.9542 -62.9356 -62.7601 -34.6440 -34.6170 -34.6090 -34.5923
   -34.5827 -34.5484 -34.5393 -34.4648 -34.3971 -34.3707 -34.3124 -34.0185
   -14.8317 -12.6426 -11.4322 -11.1840 -11.1060 -11.0389 -10.9357 -10.7406
   -10.7007 -10.6065  -6.8872  -6.7085  -6.4711  -6.0578  -5.5572  -5.4571
    -5.1613  -4.9990  -4.9586  -4.8754  -4.5294  -4.4945  -4.2601  -4.2387
    -3.9958  -3.9259  -3.7795  -3.6906  -3.5361  -3.4620  -3.3776  -3.3773
    -3.2098  -3.0799  -3.0048  -2.8639  -2.8436  -2.8045  -2.7184  -2.5899
    -2.4463  -2.3077  -2.2126  -2.1254  -2.1127  -2.0522  -1.8798  -1.7702
    -1.7053  -1.6905  -1.6323  -1.5873  -1.4676  -1.4281  -1.2655  -1.1979
    -1.1867  -1.1154  -1.0574  -0.9818  -0.9008  -0.8022  -0.6910  -0.6874
    -0.5537  -0.3701  -0.3253  -0.1752   0.0001   0.2141   0.5954   0.8447
     0.9661   1.5855   1.6039   1.6930   1.9497   2.1586   2.3411   2.3725
     2.4423   2.5037   2.6470   2.8204   2.9690   3.1358   3.3096   3.3966
     3.6148   3.7303   3.8963   4.0414

          k = 0.0000-2.2173 0.0000 ( 78550 PWs)   bands (ev):

  -104.1161-102.8830-102.8522-102.8136-102.7883-102.4678 -68.1444 -68.0999
   -67.9146 -67.4717 -64.6762 -64.5754 -64.4692 -63.4914 -63.4709 -63.4019
   -63.3629 -63.2935 -63.2901 -63.2364 -63.1876 -63.1344 -63.0806 -63.0617
   -63.0469 -62.9542 -62.9357 -62.7599 -34.6509 -34.6164 -34.6159 -34.5913
   -34.5821 -34.5559 -34.5383 -34.4738 -34.3963 -34.3695 -34.3115 -34.0151
   -14.7686 -12.0567 -11.9248 -11.0035 -10.9407 -10.8892 -10.8846 -10.7389
   -10.6798 -10.5344  -6.9271  -6.8820  -6.5451  -6.2191  -5.7322  -5.5025
    -5.3578  -5.0352  -5.0052  -4.8579  -4.7846  -4.4127  -4.3357  -4.0406
    -4.0290  -3.9101  -3.8593  -3.6717  -3.5668  -3.4338  -3.4045  -3.1405
    -3.1331  -3.0825  -3.0098  -2.9886  -2.9378  -2.7288  -2.6547  -2.5766
    -2.4842  -2.4461  -2.1385  -2.0919  -2.0786  -2.0255  -1.9208  -1.7901
    -1.7355  -1.7280  -1.6345  -1.6075  -1.3815  -1.3593  -1.3523  -1.3260
    -1.1932  -1.1512  -1.1510  -1.0845  -0.8581  -0.8269  -0.7328  -0.6783
    -0.6299  -0.4819  -0.4151  -0.2153   0.0743   0.1486   0.3906   0.8081
     0.9312   1.5985   1.6055   1.7881   1.9007   2.2360   2.3442   2.5180
     2.5834   2.6890   2.8216   2.8728   2.9075   3.2508   3.3241   3.3533
     3.6181   3.9160   3.9277   3.9880

          k =-0.5000 0.0000 0.0000 ( 78900 PWs)   bands (ev):

  -104.1162-102.8841-102.8512-102.8149-102.7871-102.4678 -68.1461 -68.1015
   -67.9163 -67.4316 -64.7494 -64.5584 -64.4633 -63.4904 -63.4703 -63.4017
   -63.3622 -63.3176 -63.2587 -63.2449 -63.1654 -63.1453 -63.1005 -63.0602
   -63.0419 -62.9541 -62.9357 -62.7602 -34.6236 -34.6015 -34.5886 -34.5779
   -34.5492 -34.5427 -34.4780 -34.4084 -34.3822 -34.3714 -34.3214 -34.0526
   -15.3859 -14.0289 -12.3940 -12.0290 -11.7672 -11.6215 -11.3076 -11.2194
   -11.0594 -10.8356  -7.3903  -6.2259  -5.8697  -5.5317  -5.5286  -5.3772
    -5.1186  -4.9515  -4.5955  -4.4253  -4.3714  -4.2434  -3.9495  -3.8280
    -3.5198  -3.5095  -3.2906  -3.2435  -3.2107  -3.0933  -3.0728  -3.0141
    -2.9269  -2.7949  -2.7194  -2.5789  -2.4908  -2.3937  -2.2818  -2.1138
    -2.0612  -1.9278  -1.9007  -1.8145  -1.6510  -1.6461  -1.5145  -1.5078
    -1.4319  -1.3690  -1.2107  -1.1919  -1.1634  -1.0650  -0.9456  -0.8643
    -0.8519  -0.7766  -0.6877  -0.6667  -0.6498  -0.4326  -0.3736  -0.1552
    -0.1009  -0.0020   0.0012   0.3474   0.4096   0.4359   0.5524   0.6480
     1.1476   1.2391   1.4301   1.5496   1.7361   1.8741   2.1503   2.1934
     2.4636   2.6923   2.7926   2.9152   2.9406   3.1371   3.2936   3.4914
     3.7214   3.7792   3.9145   3.9697

          k =-0.5000 0.4435 0.0000 ( 78868 PWs)   bands (ev):

  -104.1162-102.8840-102.8513-102.8148-102.7872-102.4678 -68.1459 -68.1014
   -67.9161 -67.4355 -64.7430 -64.5594 -64.4638 -63.4905 -63.4704 -63.4017
   -63.3624 -63.3165 -63.2606 -63.2443 -63.1677 -63.1441 -63.0983 -63.0603
   -63.0422 -62.9542 -62.9357 -62.7602 -34.6229 -34.6006 -34.5880 -34.5849
   -34.5499 -34.5479 -34.4855 -34.4082 -34.3830 -34.3786 -34.3205 -34.0489
   -15.3305 -13.9380 -12.3021 -11.9446 -11.6916 -11.5723 -11.2540 -11.1756
   -11.0225 -10.8153  -7.2915  -6.1807  -5.8832  -5.6293  -5.4658  -5.3011
    -5.0006  -4.8867  -4.5364  -4.4160  -4.3270  -4.2835  -3.9802  -3.7978
    -3.7471  -3.6572  -3.3738  -3.3481  -3.2501  -3.1722  -3.0926  -3.0255
    -2.9984  -2.8909  -2.8321  -2.6603  -2.4473  -2.4203  -2.3921  -2.2416
    -2.1542  -2.0874  -1.9061  -1.8673  -1.8259  -1.6670  -1.6262  -1.5775
    -1.4721  -1.4249  -1.3719  -1.3067  -1.2260  -1.1204  -1.0550  -0.9317
    -0.8761  -0.8101  -0.7444  -0.6467  -0.5882  -0.5378  -0.3737  -0.2377
    -0.1070  -0.0059   0.0828   0.1845   0.3374   0.5433   0.7435   0.7842
     1.1122   1.1677   1.3343   1.6493   1.7166   1.8491   2.0519   2.1871
     2.2789   2.4979   2.6142   2.6258   2.9883   3.1047   3.1616   3.3298
     3.5817   3.6864   3.8129   3.9894

          k =-0.5000 0.8869 0.0000 ( 78876 PWs)   bands (ev):

  -104.1162-102.8837-102.8515-102.8145-102.7875-102.4678 -68.1455 -68.1010
   -67.9157 -67.4457 -64.7262 -64.5624 -64.4652 -63.4908 -63.4706 -63.4018
   -63.3625 -63.3134 -63.2661 -63.2427 -63.1735 -63.1413 -63.0932 -63.0607
   -63.0433 -62.9542 -62.9357 -62.7603 -34.6211 -34.6032 -34.5980 -34.5863
   -34.5681 -34.5454 -34.5049 -34.4144 -34.3980 -34.3773 -34.3180 -34.0392
   -15.1823 -13.6670 -12.0391 -11.7075 -11.4826 -11.4373 -11.1106 -11.0718
   -10.9220 -10.7746  -7.0389  -6.2149  -5.8990  -5.6577  -5.3528  -5.2620
    -4.9843  -4.7789  -4.6600  -4.3733  -4.3472  -4.2374  -4.2177  -4.0254
    -3.8638  -3.7131  -3.6430  -3.6039  -3.4264  -3.2852  -3.2586  -3.2130
    -3.0779  -2.9566  -2.8500  -2.8180  -2.7304  -2.5809  -2.5045  -2.3971
    -2.2813  -2.2063  -2.1240  -2.0532  -1.8935  -1.8702  -1.8249  -1.7416
    -1.7019  -1.5618  -1.5190  -1.4026  -1.2745  -1.2280  -1.1436  -1.1081
    -1.0078  -0.9026  -0.8688  -0.8293  -0.5824  -0.5306  -0.4955  -0.4171
    -0.3161  -0.1666   0.0886   0.1293   0.3709   0.3928   0.8596   1.0477
     1.2208   1.2578   1.4207   1.5681   1.6936   1.8150   1.8322   2.0017
     2.0537   2.3769   2.4601   2.6253   2.9021   3.0182   3.0771   3.2288
     3.5634   3.8853   4.2493   4.3042

          k =-0.5000 1.3304 0.0000 ( 78766 PWs)   bands (ev):

  -104.1161-102.8834-102.8518-102.8141-102.7879-102.4678 -68.1450 -68.1005
   -67.9152 -67.4580 -64.7041 -64.5672 -64.4670 -63.4910 -63.4707 -63.4018
   -63.3626 -63.3081 -63.2738 -63.2403 -63.1803 -63.1380 -63.0871 -63.0611
   -63.0448 -62.9541 -62.9357 -62.7603 -34.6260 -34.6186 -34.5948 -34.5909
   -34.5842 -34.5420 -34.5289 -34.4411 -34.3989 -34.3737 -34.3149 -34.0277
   -14.9921 -13.2248 -11.6488 -11.3755 -11.2603 -11.2101 -11.0413 -10.9273
   -10.7776 -10.7219  -6.8163  -6.4387  -6.1826  -5.7016  -5.5379  -5.3272
    -5.0418  -4.8360  -4.7511  -4.5618  -4.4345  -4.2923  -4.2010  -4.0693
    -4.0388  -3.9293  -3.8699  -3.6674  -3.5495  -3.5058  -3.4110  -3.3300
    -3.1795  -3.1080  -3.0322  -2.8884  -2.7445  -2.6448  -2.6060  -2.5420
    -2.3657  -2.3156  -2.2372  -2.1511  -2.0622  -1.9835  -1.8478  -1.7984
    -1.6759  -1.6432  -1.6126  -1.5833  -1.5204  -1.3226  -1.2143  -1.1070
    -1.0941  -1.0446  -0.9262  -0.9125  -0.7169  -0.6888  -0.5984  -0.5574
    -0.4892  -0.2762  -0.1410  -0.0744   0.1274   0.2552   0.8702   1.0614
     1.1126   1.4940   1.5762   1.7461   1.7907   1.8048   1.8656   2.1398
     2.2153   2.4733   2.5280   2.7434   2.8077   3.0977   3.2535   3.3115
     3.7182   3.7369   3.9886   4.2519

          k =-0.5000 1.7738 0.0000 ( 78600 PWs)   bands (ev):

  -104.1161-102.8831-102.8521-102.8137-102.7882-102.4678 -68.1446 -68.1000
   -67.9147 -67.4680 -64.6845 -64.5726 -64.4685 -63.4912 -63.4708 -63.4018
   -63.3627 -63.3007 -63.2827 -63.2377 -63.1857 -63.1353 -63.0823 -63.0614
   -63.0462 -62.9541 -62.9356 -62.7601 -34.6440 -34.6170 -34.6090 -34.5923
   -34.5827 -34.5484 -34.5393 -34.4648 -34.3971 -34.3707 -34.3124 -34.0185
   -14.8317 -12.6426 -11.4351 -11.1984 -11.0749 -11.0408 -10.9365 -10.7701
   -10.6808 -10.6083  -6.8863  -6.7101  -6.4796  -6.0523  -5.4971  -5.3978
    -5.2048  -5.1693  -4.9394  -4.7473  -4.6036  -4.5224  -4.2898  -4.2278
    -3.9638  -3.9018  -3.7964  -3.6827  -3.5448  -3.4774  -3.3803  -3.3107
    -3.2073  -3.0905  -2.9556  -2.9091  -2.8502  -2.7940  -2.6930  -2.5341
    -2.4644  -2.3186  -2.2371  -2.1364  -2.1030  -2.0182  -1.8856  -1.7976
    -1.7514  -1.7300  -1.6084  -1.5870  -1.4686  -1.4282  -1.2617  -1.2251
    -1.1954  -1.1208  -1.0440  -0.9054  -0.8748  -0.7945  -0.7640  -0.6317
    -0.5793  -0.4242  -0.3252  -0.1831  -0.0279   0.2166   0.6021   0.8146
     1.0023   1.5631   1.6737   1.8670   2.0666   2.1217   2.2610   2.3347
     2.4033   2.5181   2.6138   2.7546   2.9830   3.0775   3.2122   3.5343
     3.6558   3.7602   3.8757   3.9258

          k =-0.5000-2.2173 0.0000 ( 78444 PWs)   bands (ev):

  -104.1161-102.8830-102.8522-102.8136-102.7883-102.4678 -68.1444 -68.0999
   -67.9146 -67.4717 -64.6762 -64.5753 -64.4690 -63.4912 -63.4708 -63.4017
   -63.3627 -63.2935 -63.2901 -63.2364 -63.1876 -63.1342 -63.0804 -63.0615
   -63.0467 -62.9540 -62.9355 -62.7599 -34.6509 -34.6163 -34.6159 -34.5913
   -34.5821 -34.5559 -34.5383 -34.4738 -34.3963 -34.3695 -34.3115 -34.0150
   -14.7686 -12.0567 -11.9248 -11.0035 -10.9405 -10.8900 -10.8847 -10.7446
   -10.6737 -10.5337  -6.9234  -6.8959  -6.5639  -6.2167  -5.6198  -5.4612
    -5.3941  -5.1233  -5.0346  -4.8515  -4.7472  -4.4530  -4.3960  -4.0759
    -3.9773  -3.8839  -3.8477  -3.6707  -3.5591  -3.3902  -3.3513  -3.1785
    -3.1783  -3.0928  -3.0289  -2.9837  -2.9829  -2.7519  -2.7124  -2.3896
    -2.3837  -2.3812  -2.2292  -2.1545  -2.1305  -1.9302  -1.8855  -1.8581
    -1.7747  -1.6793  -1.6416  -1.6339  -1.4741  -1.3940  -1.3243  -1.2599
    -1.2013  -1.1704  -1.1600  -0.9428  -0.8724  -0.8615  -0.8181  -0.6433
    -0.6138  -0.4942  -0.4792  -0.1582   0.0933   0.1131   0.4176   0.7070
     1.0007   1.5975   1.6269   1.7329   2.1847   2.2031   2.3927   2.4546
     2.5872   2.6924   2.7240   2.8637   2.8890   3.1723   3.2405   3.2431
     3.7119   3.8023   3.8168   4.0853

     the Fermi energy is     0.5229 ev

!    total energy              =   -9108.98099980 Ry
     total all-electron energy =     -9108.981000 Ry
     estimated scf accuracy    <          6.5E-09 Ry
     smearing contrib. (-TS)   =      -0.00021783 Ry
     internal energy E=F+TS    =   -9108.98078197 Ry

     The total energy is F=E-TS. E is the sum of the following terms:
     one-electron contribution =  -17638.96734880 Ry
     hartree contribution      =    8681.04150239 Ry
     xc contribution           =    -366.57422246 Ry
     ewald contribution        =    6483.24808320 Ry
     one-center paw contrib.   =   -6267.72879629 Ry

     convergence has been achieved in  24 iterations

     negative rho (up, down):  6.567E-02 0.000E+00

     Forces acting on atoms (cartesian axes, Ry/au):

     atom    1 type  1   force =    -0.37965025    0.00000000    0.19490378
     atom    2 type  1   force =     0.00079156    0.00000000   -0.00491341
     atom    3 type  1   force =    -0.01052162    0.00000000   -0.03458223
     atom    4 type  1   force =    -0.00681138    0.00000000   -0.00179493
     atom    5 type  2   force =    -0.01352752    0.00000000   -0.01534121
     atom    6 type  2   force =     0.02581825    0.00000000   -0.01762013
     atom    7 type  2   force =     0.00630785    0.00000000   -0.00358058
     atom    8 type  2   force =    -0.05262756    0.00000000    0.00649344
     atom    9 type  2   force =    -0.00175792    0.00000000    0.00220885
     atom   10 type  2   force =     0.33960369    0.00000000   -0.32473232
     atom   11 type  3   force =    -0.13891515    0.00000000   -0.03122789
     atom   12 type  3   force =    -0.00456667    0.00000000    0.00321424
     atom   13 type  3   force =     0.00092738    0.00000000    0.00067214
     atom   14 type  3   force =     0.42078043    0.00000000    0.05988319
     atom   15 type  3   force =     0.00368280    0.00000000    0.00174153
     atom   16 type  3   force =     0.00054323    0.00000000    0.00623672
     atom   17 type  3   force =    -0.00047034    0.00000000    0.00015515
     atom   18 type  3   force =    -0.46699046    0.00000000    0.44912559
     atom   19 type  3   force =     0.27692949    0.00000000   -0.29227396
     atom   20 type  3   force =     0.00045415    0.00000000    0.00143204

     Total force =     1.091543     Total SCF correction =     0.000357


     Computing stress (Cartesian axis) and pressure


     negative rho (up, down):  6.567E-02 0.000E+00
          total   stress  (Ry/bohr**3)                   (kbar)     P=       45.26
   0.00037350   0.00000000  -0.00008154           54.94        0.00      -12.00
   0.00000000   0.00027169   0.00000000            0.00       39.97        0.00
  -0.00008154   0.00000000   0.00027787          -12.00        0.00       40.88

     Energy error            =      1.5E+00 Ry
     Gradient error          =      4.7E-01 Ry/Bohr

     number of scf cycles    =   2
     number of bfgs steps    =   1

     energy             old  =   -9107.4694919910 Ry
     energy             new  =   -9108.9809997962 Ry

     CASE: energy            _new < energy            _old

     new trust radius        =       0.5967202919 bohr
     new conv_thr            =       0.0000000100 Ry


ATOMIC_POSITIONS (angstrom)
Ta              15.1274874086        0.9149235643       12.5818564395
Ta               6.5720961131        2.7447696811       12.5886021738
Ta               2.2579655112        0.9149235643       12.4197972512
Ta              11.0807526969        2.7447696811       12.5909160506
Ni              12.8550547847        0.9149235643       11.7510968284
Ni               4.0619223861        2.7447696811       13.2619668152
Ni               4.7968257546        0.9149235643       11.7589491477
Ni              13.5764098139        2.7447696811       13.2788677069
Ni               8.8271332072        0.9149235643       12.3697342739
Ni               0.2430160319        2.7447696811       12.4425414982
Te              14.1168639740        2.7447696811       10.5136154933
Te               5.3895636001        0.9149235643       14.5027948578
Te              10.5960772306        0.9149235643       10.5197952105
Te               2.0668565414        2.7447696811       14.5579697884
Te               3.4462106362        2.7447696811       10.5362351293
Te              12.2643781655        0.9149235643       14.5050977050
Te               7.0612924433        0.9149235643       10.5192781610
Te              15.5581708238        2.7447696811       14.8279041440
Te               0.2016138213        0.9149235643       10.6320638777
Te               8.8288714188        2.7447696811       14.1991684476



     Writing config-only to output data dir /ddn/data/physics/eamoujaes/2D-Ta2Ni3Te5/ELASTIC/OUT/ta2ni3te5.save/ :
     XML data file
     NEW-OLD atomic charge density approx. for the potential

     negative rho (up, down):  6.381E-02 0.000E+00

     total cpu time spent up to now is     2253.8 secs

     Self-consistent Calculation

     iteration #  1     ecut=    60.00 Ry     beta= 0.20
     Davidson diagonalization with overlap
     c_bands:  1 eigenvalues not converged
     c_bands:  2 eigenvalues not converged
     c_bands:  2 eigenvalues not converged
     c_bands:  3 eigenvalues not converged
     c_bands:  2 eigenvalues not converged
     c_bands:  2 eigenvalues not converged
     c_bands:  1 eigenvalues not converged
     c_bands:  2 eigenvalues not converged
     c_bands:  2 eigenvalues not converged
     c_bands:  4 eigenvalues not converged
     c_bands:  1 eigenvalues not converged
     ethr =  1.00E-06,  avg # of iterations = 19.9

     negative rho (up, down):  6.381E-02 0.000E+00

     total cpu time spent up to now is     2297.4 secs

     total energy              =   -9108.62685691 Ry
     estimated scf accuracy    <       7.03920426 Ry

     iteration #  2     ecut=    60.00 Ry     beta= 0.20
     Davidson diagonalization with overlap
     ethr =  3.20E-03,  avg # of iterations =  2.8

     negative rho (up, down):  6.393E-02 0.000E+00

     total cpu time spent up to now is     2334.4 secs

     total energy              =   -9105.48925043 Ry
     estimated scf accuracy    <      88.70565525 Ry

     iteration #  3     ecut=    60.00 Ry     beta= 0.20
     Davidson diagonalization with overlap
     ethr =  3.20E-03,  avg # of iterations =  3.3

     negative rho (up, down):  6.407E-02 0.000E+00

     total cpu time spent up to now is     2371.3 secs

     total energy              =   -9109.99964514 Ry
     estimated scf accuracy    <      10.40892323 Ry

     iteration #  4     ecut=    60.00 Ry     beta= 0.20
     Davidson diagonalization with overlap
     ethr =  3.20E-03,  avg # of iterations =  1.1

     negative rho (up, down):  6.419E-02 0.000E+00

     total cpu time spent up to now is     2407.9 secs

     total energy              =   -9109.89235405 Ry
     estimated scf accuracy    <       2.95929108 Ry

     iteration #  5     ecut=    60.00 Ry     beta= 0.20
     Davidson diagonalization with overlap
     ethr =  1.35E-03,  avg # of iterations =  1.2

     negative rho (up, down):  6.420E-02 0.000E+00

     total cpu time spent up to now is     2444.5 secs

     total energy              =   -9109.90209863 Ry
     estimated scf accuracy    <       0.74555431 Ry

     iteration #  6     ecut=    60.00 Ry     beta= 0.20
     Davidson diagonalization with overlap
     ethr =  3.39E-04,  avg # of iterations =  2.1

     negative rho (up, down):  6.417E-02 0.000E+00

     total cpu time spent up to now is     2481.6 secs

     total energy              =   -9109.83993626 Ry
     estimated scf accuracy    <       0.15749086 Ry

     iteration #  7     ecut=    60.00 Ry     beta= 0.20
     Davidson diagonalization with overlap
     ethr =  7.16E-05,  avg # of iterations =  5.1

     negative rho (up, down):  6.421E-02 0.000E+00

     total cpu time spent up to now is     2518.7 secs

     total energy              =   -9109.74579375 Ry
     estimated scf accuracy    <       0.12099071 Ry

     iteration #  8     ecut=    60.00 Ry     beta= 0.20
     Davidson diagonalization with overlap
     ethr =  5.50E-05,  avg # of iterations =  2.0

     negative rho (up, down):  6.425E-02 0.000E+00

     total cpu time spent up to now is     2555.6 secs

     total energy              =   -9109.65127337 Ry
     estimated scf accuracy    <       0.09582628 Ry

     iteration #  9     ecut=    60.00 Ry     beta= 0.20
     Davidson diagonalization with overlap
     ethr =  4.36E-05,  avg # of iterations =  2.0

     negative rho (up, down):  6.431E-02 0.000E+00

     total cpu time spent up to now is     2592.8 secs

     total energy              =   -9109.53838770 Ry
     estimated scf accuracy    <       0.10598126 Ry

     iteration # 10     ecut=    60.00 Ry     beta= 0.20
     Davidson diagonalization with overlap
     ethr =  4.36E-05,  avg # of iterations =  2.0

     negative rho (up, down):  6.437E-02 0.000E+00

     total cpu time spent up to now is     2629.9 secs

     total energy              =   -9109.43827762 Ry
     estimated scf accuracy    <       0.05735634 Ry

     iteration # 11     ecut=    60.00 Ry     beta= 0.20
     Davidson diagonalization with overlap
     ethr =  2.61E-05,  avg # of iterations =  2.0

     negative rho (up, down):  6.435E-02 0.000E+00

     total cpu time spent up to now is     2667.1 secs

     total energy              =   -9109.42366551 Ry
     estimated scf accuracy    <       0.06076236 Ry

     iteration # 12     ecut=    60.00 Ry     beta= 0.20
     Davidson diagonalization with overlap
     ethr =  2.61E-05,  avg # of iterations =  2.0

     negative rho (up, down):  6.435E-02 0.000E+00

     total cpu time spent up to now is     2704.3 secs

     total energy              =   -9109.41698436 Ry
     estimated scf accuracy    <       0.01061865 Ry

     iteration # 13     ecut=    60.00 Ry     beta= 0.20
     Davidson diagonalization with overlap
     c_bands:  1 eigenvalues not converged
     ethr =  4.83E-06,  avg # of iterations =  8.9

     negative rho (up, down):  6.433E-02 0.000E+00

     total cpu time spent up to now is     2742.8 secs

     total energy              =   -9109.41740461 Ry
     estimated scf accuracy    <       0.00493422 Ry

     iteration # 14     ecut=    60.00 Ry     beta= 0.20
     Davidson diagonalization with overlap
     ethr =  2.24E-06,  avg # of iterations =  3.7

     negative rho (up, down):  6.432E-02 0.000E+00

     total cpu time spent up to now is     2779.8 secs

     total energy              =   -9109.41698683 Ry
     estimated scf accuracy    <       0.00478278 Ry

     iteration # 15     ecut=    60.00 Ry     beta= 0.20
     Davidson diagonalization with overlap
     ethr =  2.17E-06,  avg # of iterations =  3.1

     negative rho (up, down):  6.431E-02 0.000E+00

     total cpu time spent up to now is     2817.0 secs

     total energy              =   -9109.41711138 Ry
     estimated scf accuracy    <       0.00460972 Ry

     iteration # 16     ecut=    60.00 Ry     beta= 0.20
     Davidson diagonalization with overlap
     ethr =  2.10E-06,  avg # of iterations =  1.8

     negative rho (up, down):  6.430E-02 0.000E+00

     total cpu time spent up to now is     2854.1 secs

     total energy              =   -9109.41715769 Ry
     estimated scf accuracy    <       0.00070426 Ry

     iteration # 17     ecut=    60.00 Ry     beta= 0.20
     Davidson diagonalization with overlap
     ethr =  3.20E-07,  avg # of iterations =  2.0

     negative rho (up, down):  6.429E-02 0.000E+00

     total cpu time spent up to now is     2891.1 secs

     total energy              =   -9109.41718012 Ry
     estimated scf accuracy    <       0.00039246 Ry

     iteration # 18     ecut=    60.00 Ry     beta= 0.20
     Davidson diagonalization with overlap
     ethr =  1.78E-07,  avg # of iterations =  1.0

     negative rho (up, down):  6.429E-02 0.000E+00

     total cpu time spent up to now is     2928.1 secs

     total energy              =   -9109.41720158 Ry
     estimated scf accuracy    <       0.00024461 Ry

     iteration # 19     ecut=    60.00 Ry     beta= 0.20
     Davidson diagonalization with overlap
     ethr =  1.11E-07,  avg # of iterations =  1.0

     negative rho (up, down):  6.428E-02 0.000E+00

     total cpu time spent up to now is     2964.6 secs

     total energy              =   -9109.41721094 Ry
     estimated scf accuracy    <       0.00004391 Ry

     iteration # 20     ecut=    60.00 Ry     beta= 0.20
     Davidson diagonalization with overlap
     ethr =  2.00E-08,  avg # of iterations =  2.0

     negative rho (up, down):  6.428E-02 0.000E+00

     total cpu time spent up to now is     3001.6 secs

     total energy              =   -9109.41721294 Ry
     estimated scf accuracy    <       0.00004115 Ry

     iteration # 21     ecut=    60.00 Ry     beta= 0.20
     Davidson diagonalization with overlap
     ethr =  1.87E-08,  avg # of iterations =  1.0

     negative rho (up, down):  6.427E-02 0.000E+00

     total cpu time spent up to now is     3038.2 secs

     total energy              =   -9109.41721193 Ry
     estimated scf accuracy    <       0.00001062 Ry

     iteration # 22     ecut=    60.00 Ry     beta= 0.20
     Davidson diagonalization with overlap
     ethr =  4.83E-09,  avg # of iterations =  2.0

     negative rho (up, down):  6.427E-02 0.000E+00

     total cpu time spent up to now is     3075.0 secs

     total energy              =   -9109.41721101 Ry
     estimated scf accuracy    <       0.00000465 Ry

     iteration # 23     ecut=    60.00 Ry     beta= 0.20
     Davidson diagonalization with overlap
     ethr =  2.11E-09,  avg # of iterations =  2.3

     negative rho (up, down):  6.426E-02 0.000E+00

     total cpu time spent up to now is     3111.9 secs

     total energy              =   -9109.41721099 Ry
     estimated scf accuracy    <       0.00000160 Ry

     iteration # 24     ecut=    60.00 Ry     beta= 0.20
     Davidson diagonalization with overlap
     ethr =  7.26E-10,  avg # of iterations =  2.7

     negative rho (up, down):  6.426E-02 0.000E+00

     total cpu time spent up to now is     3149.0 secs

     total energy              =   -9109.41721108 Ry
     estimated scf accuracy    <       0.00000158 Ry

     iteration # 25     ecut=    60.00 Ry     beta= 0.20
     Davidson diagonalization with overlap
[...]
     2.4248   2.4363   2.5131   2.5479   2.5858   2.8474   2.9268   3.1082
     3.1694   3.4839   4.0725   4.2814

          k = 0.0000 1.3304 0.0000 ( 78735 PWs)   bands (ev):

  -103.1490-103.1474-103.1348-103.1317-102.7481-102.7472 -68.0830 -68.0823
   -68.0810 -68.0800 -63.6997 -63.6982 -63.6874 -63.6846 -63.5508 -63.5486
   -63.5190 -63.5162 -63.4530 -63.4508 -63.4315 -63.4286 -63.2041 -63.2037
   -63.1929 -63.1925 -63.0963 -63.0937 -34.6231 -34.6225 -34.6187 -34.6176
   -34.5825 -34.5819 -34.5806 -34.5797 -34.5515 -34.5474 -34.5399 -34.5359
   -12.0376 -11.6972 -11.6327 -11.5783 -11.3858 -11.2847 -10.9144 -10.8557
   -10.8427 -10.7592  -5.6455  -5.2367  -5.2192  -5.2020  -4.9365  -4.8546
    -4.7862  -4.7111  -4.4610  -4.4075  -4.2156  -4.1104  -4.1059  -3.8002
    -3.7681  -3.7519  -3.6636  -3.5040  -3.4948  -3.4305  -3.1935  -3.1579
    -3.0991  -2.9434  -2.9203  -2.7320  -2.6730  -2.6210  -2.5747  -2.4097
    -2.3181  -2.2215  -2.1482  -2.1036  -2.0366  -1.9426  -1.8139  -1.7898
    -1.7630  -1.7536  -1.6410  -1.6377  -1.4906  -1.4804  -1.4607  -1.3475
    -1.3122  -1.2665  -1.0657  -0.9528  -0.8995  -0.7874  -0.6714  -0.5729
    -0.4721  -0.4329  -0.3733  -0.3287  -0.2142  -0.0998   0.6596   0.7556
     1.2700   1.3548   1.3908   1.5609   1.7371   1.7416   1.8716   1.9348
     2.3299   2.4181   2.6543   2.7465   2.7800   2.8868   2.9273   3.1862
     3.3125   3.5850   3.7781   3.9472

          k = 0.0000 1.7738 0.0000 ( 78629 PWs)   bands (ev):

  -103.1484-103.1469-103.1353-103.1322-102.7481-102.7471 -68.0826 -68.0819
   -68.0806 -68.0796 -63.6999 -63.6984 -63.6877 -63.6848 -63.5454 -63.5435
   -63.5273 -63.5244 -63.4477 -63.4456 -63.4332 -63.4302 -63.2042 -63.2037
   -63.1929 -63.1924 -63.0961 -63.0935 -34.6206 -34.6201 -34.6162 -34.6153
   -34.6013 -34.6007 -34.5987 -34.5979 -34.5481 -34.5459 -34.5375 -34.5353
   -11.5642 -11.4342 -11.2456 -11.2371 -11.2122 -11.0654 -10.8345 -10.8292
   -10.6749 -10.6500  -5.8644  -5.7775  -5.6836  -5.6428  -5.0571  -4.9771
    -4.8851  -4.7436  -4.6457  -4.4079  -4.2895  -4.0936  -4.0679  -3.8783
    -3.8113  -3.5191  -3.4930  -3.3804  -3.3504  -3.2715  -3.2650  -3.2291
    -3.1418  -3.0675  -2.9483  -2.8636  -2.7274  -2.5597  -2.5027  -2.4255
    -2.3802  -2.3395  -2.2648  -2.1837  -2.0126  -1.9203  -1.9037  -1.8566
    -1.7960  -1.7864  -1.7094  -1.6822  -1.6400  -1.6320  -1.5523  -1.4488
    -1.2833  -1.2768  -1.2706  -1.1429  -0.9892  -0.9812  -0.7379  -0.7275
    -0.6967  -0.6850  -0.6343  -0.3609  -0.3460  -0.3269   0.5495   0.6029
     1.1049   1.2067   1.5031   1.7756   1.9481   2.0941   2.2429   2.2566
     2.4150   2.5029   2.6327   2.6879   2.9522   3.1741   3.2356   3.3091
     3.4186   3.4838   3.6147   3.7601

          k = 0.0000-2.2173 0.0000 ( 78550 PWs)   bands (ev):

  -103.1482-103.1467-103.1356-103.1324-102.7481-102.7471 -68.0824 -68.0817
   -68.0805 -68.0795 -63.7000 -63.6985 -63.6877 -63.6849 -63.5413 -63.5398
   -63.5321 -63.5287 -63.4455 -63.4435 -63.4342 -63.4311 -63.2042 -63.2038
   -63.1930 -63.1925 -63.0959 -63.0932 -34.6196 -34.6192 -34.6152 -34.6143
   -34.6085 -34.6079 -34.6057 -34.6048 -34.5465 -34.5457 -34.5362 -34.5354
   -11.3260 -11.3249 -11.0436 -11.0428 -10.9858 -10.9839 -10.9326 -10.9319
   -10.6204 -10.6203  -5.9637  -5.9633  -5.9532  -5.9506  -5.1890  -5.1889
    -4.9245  -4.9241  -4.5818  -4.5812  -4.0253  -4.0250  -3.7401  -3.7392
    -3.7277  -3.7267  -3.4183  -3.4177  -3.2889  -3.2885  -3.2385  -3.2380
    -3.0306  -3.0297  -2.8740  -2.8716  -2.6726  -2.6722  -2.5983  -2.5975
    -2.3289  -2.3287  -2.1746  -2.1736  -2.0158  -2.0146  -1.9050  -1.9030
    -1.8484  -1.8478  -1.6959  -1.6943  -1.6750  -1.6744  -1.4856  -1.4851
    -1.2471  -1.2452  -1.2066  -1.2063  -1.0159  -1.0140  -0.9445  -0.9425
    -0.8961  -0.8958  -0.5408  -0.5407  -0.3217  -0.3208   0.5734   0.5745
     1.0665   1.0673   1.7643   1.7661   1.8606   1.8607   2.3990   2.4001
     2.6239   2.6248   2.8496   2.8511   3.0902   3.0906   3.3544   3.3568
     3.4096   3.4099   3.6765   3.6768

          k =-0.5000 0.0000 0.0000 ( 78900 PWs)   bands (ev):

  -103.1503-103.1486-103.1335-103.1305-102.7481-102.7472 -68.0842 -68.0835
   -68.0821 -68.0811 -63.6992 -63.6977 -63.6869 -63.6840 -63.5577 -63.5555
   -63.4994 -63.4966 -63.4686 -63.4664 -63.4292 -63.4264 -63.2039 -63.2035
   -63.1930 -63.1925 -63.0963 -63.0937 -34.6292 -34.6288 -34.6247 -34.6239
   -34.5572 -34.5565 -34.5415 -34.5408 -34.5330 -34.5328 -34.5322 -34.5313
   -12.7134 -12.7108 -11.9844 -11.9808 -11.8540 -11.8533 -11.3721 -11.3711
   -11.0034 -11.0026  -6.0192  -6.0163  -5.5253  -5.5248  -5.1203  -5.1173
    -4.7372  -4.7362  -4.4053  -4.4029  -3.6967  -3.6953  -3.5877  -3.5862
    -3.4918  -3.4889  -3.2091  -3.2064  -3.0841  -3.0809  -2.7655  -2.7619
    -2.7098  -2.7077  -2.4179  -2.4172  -2.2396  -2.2389  -2.1665  -2.1640
    -2.0386  -2.0375  -1.8750  -1.8726  -1.7761  -1.7741  -1.6466  -1.6455
    -1.3444  -1.3429  -1.1908  -1.1903  -1.1189  -1.1154  -0.8826  -0.8797
    -0.7926  -0.7918  -0.6298  -0.6288  -0.4457  -0.4445  -0.3010  -0.2995
    -0.1925  -0.1900   0.1056   0.1064   0.2120   0.2138   0.5122   0.5135
     1.4054   1.4067   1.4690   1.4709   1.8290   1.8301   2.1139   2.1151
     2.5980   2.6000   2.6540   2.6564   2.8814   2.8837   3.5555   3.5564
     3.5669   3.5685   3.9166   3.9956

          k =-0.5000 0.4435 0.0000 ( 78868 PWs)   bands (ev):

  -103.1502-103.1485-103.1337-103.1307-102.7481-102.7472 -68.0840 -68.0833
   -68.0819 -68.0809 -63.6993 -63.6979 -63.6870 -63.6842 -63.5569 -63.5547
   -63.5028 -63.5000 -63.4656 -63.4634 -63.4294 -63.4266 -63.2040 -63.2036
   -63.1929 -63.1925 -63.0963 -63.0937 -34.6283 -34.6279 -34.6238 -34.6230
   -34.5562 -34.5555 -34.5415 -34.5410 -34.5398 -34.5394 -34.5391 -34.5383
   -12.6187 -12.6161 -11.9179 -11.9144 -11.7877 -11.7870 -11.3218 -11.3208
   -10.9612 -10.9604  -5.9204  -5.9176  -5.4384  -5.4379  -5.0429  -5.0398
    -4.6854  -4.6843  -4.3555  -4.3532  -3.7945  -3.7929  -3.6577  -3.6565
    -3.4548  -3.4531  -3.1907  -3.1886  -3.1506  -3.1481  -2.7950  -2.7944
    -2.7375  -2.7358  -2.6978  -2.6961  -2.2486  -2.2481  -2.1826  -2.1821
    -2.0515  -2.0512  -1.9297  -1.9285  -1.8204  -1.8195  -1.6937  -1.6929
    -1.5051  -1.5045  -1.4261  -1.4238  -1.1705  -1.1674  -1.0911  -1.0904
    -0.8601  -0.8589  -0.7482  -0.7477  -0.5875  -0.5865  -0.2947  -0.2940
    -0.1238  -0.1226  -0.0823  -0.0813   0.3948   0.3962   0.6601   0.6607
     1.1260   1.1278   1.6006   1.6018   1.7615   1.7634   2.0314   2.0321
     2.2892   2.2905   2.6774   2.6798   2.8388   2.8399   3.1858   3.1880
     3.3345   3.3349   3.8487   3.8495

          k =-0.5000 0.8869 0.0000 ( 78876 PWs)   bands (ev):

  -103.1497-103.1480-103.1341-103.1311-102.7481-102.7472 -68.0836 -68.0829
   -68.0815 -68.0805 -63.6996 -63.6981 -63.6873 -63.6844 -63.5547 -63.5525
   -63.5103 -63.5076 -63.4595 -63.4573 -63.4302 -63.4274 -63.2041 -63.2037
   -63.1930 -63.1925 -63.0964 -63.0937 -34.6259 -34.6255 -34.6215 -34.6206
   -34.5592 -34.5588 -34.5584 -34.5575 -34.5529 -34.5524 -34.5396 -34.5388
   -12.3468 -12.3444 -11.7446 -11.7420 -11.5910 -11.5901 -11.1861 -11.1854
   -10.8504 -10.8496  -5.6602  -5.6575  -5.2061  -5.2056  -4.8899  -4.8867
    -4.6696  -4.6684  -4.2475  -4.2457  -4.0131  -4.0123  -3.8596  -3.8579
    -3.4495  -3.4474  -3.3997  -3.3988  -3.3046  -3.3044  -3.0306  -3.0303
    -2.9954  -2.9935  -2.7281  -2.7270  -2.5375  -2.5352  -2.3703  -2.3699
    -2.1421  -2.1412  -2.0947  -2.0941  -1.9448  -1.9447  -1.7733  -1.7729
    -1.6575  -1.6555  -1.6311  -1.6301  -1.2968  -1.2954  -1.2203  -1.2189
    -1.0161  -1.0144  -0.9538  -0.9525  -0.7916  -0.7903  -0.5006  -0.4996
    -0.2900  -0.2894  -0.0272  -0.0266   0.1867   0.1877   0.8167   0.8178
     1.2120   1.2141   1.4767   1.4768   1.6086   1.6109   1.9564   1.9592
     2.1034   2.1044   2.4823   2.4836   2.9386   2.9397   2.9600   2.9602
     3.2180   3.2212   4.1747   4.1750

          k =-0.5000 1.3304 0.0000 ( 78766 PWs)   bands (ev):

  -103.1490-103.1474-103.1348-103.1317-102.7481-102.7472 -68.0830 -68.0823
   -68.0810 -68.0800 -63.6997 -63.6982 -63.6875 -63.6846 -63.5508 -63.5487
   -63.5190 -63.5162 -63.4530 -63.4508 -63.4315 -63.4286 -63.2041 -63.2037
   -63.1929 -63.1925 -63.0963 -63.0937 -34.6230 -34.6226 -34.6185 -34.6177
   -34.5825 -34.5819 -34.5806 -34.5797 -34.5501 -34.5494 -34.5380 -34.5372
   -11.9398 -11.9377 -11.5209 -11.5195 -11.3036 -11.3020 -11.0100 -11.0095
   -10.7229 -10.7223  -5.4786  -5.4765  -5.1109  -5.1099  -4.9603  -4.9598
    -4.8453  -4.8428  -4.3512  -4.3490  -4.2481  -4.2470  -3.9330  -3.9323
    -3.7349  -3.7340  -3.5454  -3.5435  -3.3229  -3.3224  -3.2595  -3.2587
    -2.9674  -2.9663  -2.8350  -2.8326  -2.7151  -2.7145  -2.4849  -2.4845
    -2.2853  -2.2836  -2.1012  -2.0996  -1.9913  -1.9905  -1.8975  -1.8962
    -1.7562  -1.7543  -1.6959  -1.6949  -1.4402  -1.4390  -1.2998  -1.2983
    -1.2763  -1.2743  -1.1624  -1.1607  -0.8235  -0.8221  -0.5998  -0.5982
    -0.4588  -0.4582  -0.3277  -0.3276  -0.1377  -0.1369   0.6843   0.6857
     1.2734   1.2747   1.5886   1.5910   1.7837   1.7847   2.0748   2.0751
     2.1592   2.1615   2.5312   2.5330   3.0083   3.0088   3.0557   3.0571
     3.3264   3.3279   3.9827   3.9841

          k =-0.5000 1.7738 0.0000 ( 78600 PWs)   bands (ev):

  -103.1484-103.1469-103.1353-103.1322-102.7481-102.7471 -68.0826 -68.0819
   -68.0806 -68.0796 -63.6998 -63.6983 -63.6876 -63.6847 -63.5454 -63.5435
   -63.5273 -63.5244 -63.4477 -63.4456 -63.4331 -63.4301 -63.2041 -63.2037
   -63.1928 -63.1924 -63.0961 -63.0935 -34.6206 -34.6202 -34.6161 -34.6153
   -34.6013 -34.6007 -34.5987 -34.5979 -34.5475 -34.5467 -34.5367 -34.5359
   -11.5037 -11.5024 -11.2924 -11.2921 -11.0512 -11.0493 -10.8778 -10.8769
   -10.6511 -10.6509  -5.8852  -5.8844  -5.5382  -5.5368  -5.0670  -5.0667
    -4.8729  -4.8712  -4.5151  -4.5144  -4.2327  -4.2301  -3.9606  -3.9588
    -3.6840  -3.6827  -3.4425  -3.4408  -3.2897  -3.2887  -3.1742  -3.1728
    -3.0451  -3.0443  -2.8018  -2.7998  -2.7797  -2.7791  -2.5205  -2.5197
    -2.4078  -2.4071  -2.0719  -2.0703  -2.0139  -2.0130  -1.8898  -1.8890
    -1.8578  -1.8572  -1.7197  -1.7184  -1.5692  -1.5667  -1.4599  -1.4579
    -1.3254  -1.3241  -1.2217  -1.2208  -0.9269  -0.9253  -0.8489  -0.8485
    -0.6769  -0.6746  -0.5573  -0.5562  -0.2624  -0.2617   0.5727   0.5739
     1.1251   1.1262   1.8147   1.8166   2.0558   2.0569   2.3015   2.3023
     2.4124   2.4136   2.5736   2.5751   2.9411   2.9425   3.1776   3.1780
     3.5395   3.5403   3.7437   3.7446

          k =-0.5000-2.2173 0.0000 ( 78444 PWs)   bands (ev):

  -103.1482-103.1467-103.1356-103.1324-102.7481-102.7471 -68.0824 -68.0817
   -68.0805 -68.0795 -63.6998 -63.6983 -63.6876 -63.6847 -63.5413 -63.5398
   -63.5321 -63.5287 -63.4454 -63.4433 -63.4341 -63.4310 -63.2040 -63.2037
   -63.1928 -63.1923 -63.0959 -63.0933 -34.6196 -34.6192 -34.6152 -34.6143
   -34.6085 -34.6079 -34.6057 -34.6049 -34.5465 -34.5457 -34.5362 -34.5354
   -11.3256 -11.3246 -11.0357 -11.0350 -10.9974 -10.9954 -10.9312 -10.9306
   -10.6181 -10.6180  -6.1279  -6.1271  -5.7160  -5.7142  -5.2576  -5.2575
    -4.8747  -4.8744  -4.6656  -4.6647  -3.9610  -3.9597  -3.9497  -3.9478
    -3.4750  -3.4750  -3.4112  -3.4103  -3.4054  -3.4045  -3.2275  -3.2264
    -2.9874  -2.9860  -2.9236  -2.9222  -2.6610  -2.6609  -2.6252  -2.6242
    -2.1854  -2.1846  -2.1800  -2.1790  -1.9969  -1.9958  -1.9507  -1.9503
    -1.9295  -1.9280  -1.6426  -1.6419  -1.6141  -1.6131  -1.4342  -1.4333
    -1.4319  -1.4300  -1.1901  -1.1897  -0.9932  -0.9913  -0.9838  -0.9838
    -0.8950  -0.8930  -0.5392  -0.5391  -0.3185  -0.3174   0.5792   0.5803
     1.0530   1.0537   1.7862   1.7880   2.0330   2.0341   2.4313   2.4334
     2.5664   2.5686   2.7351   2.7355   3.0608   3.0610   3.2984   3.2994
     3.3413   3.3431   3.8095   3.8176

     the Fermi energy is     0.4093 ev

!    total energy              =   -9109.74134655 Ry
     total all-electron energy =     -9109.741347 Ry
     estimated scf accuracy    <          1.7E-11 Ry
     smearing contrib. (-TS)   =      -0.00018981 Ry
     internal energy E=F+TS    =   -9109.74115674 Ry

     The total energy is F=E-TS. E is the sum of the following terms:
     one-electron contribution =  -17383.65198248 Ry
     hartree contribution      =    8553.39519164 Ry
     xc contribution           =    -365.52878098 Ry
     ewald contribution        =    6353.84542263 Ry
     one-center paw contrib.   =   -6267.80100754 Ry

     convergence has been achieved in  18 iterations

     negative rho (up, down):  6.436E-02 0.000E+00

     Forces acting on atoms (cartesian axes, Ry/au):

     atom    1 type  1   force =    -0.00025999    0.00000000   -0.00026164
     atom    2 type  1   force =     0.00024761    0.00000000    0.00015099
     atom    3 type  1   force =    -0.00009448    0.00000000    0.00014513
     atom    4 type  1   force =     0.00012303    0.00000000   -0.00031811
     atom    5 type  2   force =    -0.00011275    0.00000000    0.00002028
     atom    6 type  2   force =     0.00013730    0.00000000   -0.00006996
     atom    7 type  2   force =    -0.00003763    0.00000000    0.00003081
     atom    8 type  2   force =     0.00000356    0.00000000   -0.00000222
     atom    9 type  2   force =    -0.00015245    0.00000000    0.00025427
     atom   10 type  2   force =     0.00022812    0.00000000    0.00004913
     atom   11 type  3   force =     0.00039812    0.00000000   -0.00014773
     atom   12 type  3   force =     0.00002620    0.00000000    0.00009721
     atom   13 type  3   force =     0.00004647    0.00000000   -0.00070455
     atom   14 type  3   force =    -0.00064658    0.00000000    0.00058551
     atom   15 type  3   force =     0.00001011    0.00000000   -0.00025607
     atom   16 type  3   force =     0.00004072    0.00000000    0.00001364
     atom   17 type  3   force =     0.00015596    0.00000000    0.00024621
     atom   18 type  3   force =     0.00004711    0.00000000   -0.00008834
     atom   19 type  3   force =    -0.00035579    0.00000000   -0.00020526
     atom   20 type  3   force =     0.00019539    0.00000000    0.00046070

     Total force =     0.001606     Total SCF correction =     0.000035


     Computing stress (Cartesian axis) and pressure


     negative rho (up, down):  6.436E-02 0.000E+00
          total   stress  (Ry/bohr**3)                   (kbar)     P=       13.12
   0.00025274   0.00000000  -0.00000023           37.18        0.00       -0.03
   0.00000000   0.00005617   0.00000000            0.00        8.26        0.00
  -0.00000023   0.00000000  -0.00004134           -0.03        0.00       -6.08

     Energy error            =      7.2E-06 Ry
     Gradient error          =      7.0E-04 Ry/Bohr

     bfgs converged in  42 scf cycles and  41 bfgs steps
     (criteria: energy <  1.0E-04 Ry, force <  1.0E-03 Ry/Bohr)

     End of BFGS Geometry Optimization

     Final energy             =   -9109.7413465478 Ry

     File /ddn/data/physics/eamoujaes/2D-Ta2Ni3Te5/ELASTIC/OUT/ta2ni3te5.bfgs deleted, as requested
Begin final coordinates

ATOMIC_POSITIONS (angstrom)
Ta              14.8598687528        0.9149235643       12.6027212483
Ta               6.7430662266        2.7447696811       12.4310787466
Ta               2.6603721028        0.9149235643       12.5751290010
Ta              10.7750189069        2.7447696811       12.4626458232
Ni              12.5195824583        0.9149235643       11.7452269368
Ni               4.4051566887        2.7447696811       13.2923127289
Ni               4.9976084235        0.9149235643       11.7039904948
Ni              13.1127286267        2.7447696811       13.3327052510
Ni               8.7553537933        0.9149235643       12.3364880638
Ni               0.6415714099        2.7447696811       12.6972375946
Te              13.7895081407        2.7447696811       10.5624818281
Te               5.6768900687        0.9149235643       14.4735817160
Te              10.4061188134        0.9149235643       10.3555111559
Te               2.2938336301        2.7447696811       14.6821226592
Te               3.7172561761        2.7447696811       10.5283550011
Te              11.8316985074        0.9149235643       14.5095545396
Te               7.1215199502        0.9149235643       10.3269107297
Te              15.2379336527        2.7447696811       14.7066889368
Te               0.6359619483        0.9149235643       10.7510341182
Te               8.7475140860        2.7447696811       14.2824744264
End final coordinates



     Writing all to output data dir /ddn/data/physics/eamoujaes/2D-Ta2Ni3Te5/ELASTIC/OUT/ta2ni3te5.save/ :
     XML data file, charge density, pseudopotentials, collected wavefunctions
 
     init_run     :     51.23s CPU     62.67s WALL (       1 calls)
     electrons    :  28231.46s CPU  36822.75s WALL (      42 calls)
     update_pot   :   1184.42s CPU   1529.88s WALL (      41 calls)
     forces       :     71.75s CPU     90.46s WALL (      42 calls)
     stress       :    125.83s CPU    195.40s WALL (      42 calls)

     Called by init_run:
     wfcinit      :      5.14s CPU      6.67s WALL (       1 calls)
     potinit      :     41.62s CPU     50.28s WALL (       1 calls)
     hinit0       :      2.57s CPU      3.01s WALL (       1 calls)

     Called by electrons:
     c_bands      :   1702.75s CPU   2491.93s WALL (     929 calls)
     sum_band     :    758.98s CPU    951.00s WALL (     929 calls)
     v_of_rho     :    320.22s CPU    429.54s WALL (     953 calls)
     newd         :     63.24s CPU    101.88s WALL (     953 calls)
                                      101.87s GPU  (     953 calls)
     PAW_pot      :  27437.05s CPU  35467.48s WALL (     994 calls)
     mix_rho      :     95.55s CPU    187.50s WALL (     929 calls)

     Called by c_bands:
     init_us_2    :    173.20s CPU    217.45s WALL (   23808 calls)
     init_us_2:cp :    145.22s CPU    184.48s WALL (     492 calls)
     init_us_2:gp :     27.39s CPU     32.33s WALL (   23316 calls)
     cegterg      :    970.11s CPU   1649.24s WALL (   11148 calls)

     Called by *egterg:
     cdiaghg      :     94.34s CPU    151.24s WALL (   37601 calls)
                                      151.03s GPU  (   37601 calls)
     h_psi        :    683.22s CPU   1177.43s WALL (   38321 calls)
                                     1174.56s GPU  (   38321 calls)
     s_psi        :     16.96s CPU     23.61s WALL (   38321 calls)
     g_psi        :      0.10s CPU     10.39s WALL (   27161 calls)
                                       10.13s GPU  (   27161 calls)

     Called by h_psi:
     h_psi:calbec :      1.27s CPU     46.95s WALL (   38321 calls)
                                       46.42s GPU  (   38321 calls)
     vloc_psi     :    610.08s CPU   1057.86s WALL (   38321 calls)
                                     1057.64s GPU  (   38321 calls)
     add_vuspsi   :     13.02s CPU     60.60s WALL (   38321 calls)
                                       60.12s GPU  (   38321 calls)

     General routines
     calbec       :    399.59s CPU    799.82s WALL (   52481 calls)
     fft          :     84.52s CPU     89.36s WALL (   13414 calls)
                                        4.31s GPU  (   12461 calls)
     ffts         :     24.34s CPU     24.65s WALL (    1882 calls)
                                        0.11s GPU  (     929 calls)
     fftw         :      4.11s CPU    932.93s WALL (  569798 calls)
                                      922.97s GPU  (  569798 calls)
     interpolate  :    123.18s CPU    130.55s WALL (     953 calls)
 
     Parallel routines
 
     PWSCF        :      8h42m CPU     11h26m WALL

 
   This run was terminated on:   3:42: 5  28Jul2024            

=------------------------------------------------------------------------------=
   JOB DONE.
=------------------------------------------------------------------------------=
