
     Program PWSCF v.7.3 starts on 28Jul2024 at  3:42:19 

     This program is part of the open-source Quantum ESPRESSO suite
     for quantum simulation of materials; please cite
         "P. Giannozzi et al., J. Phys.:Condens. Matter 21 395502 (2009);
         "P. Giannozzi et al., J. Phys.:Condens. Matter 29 465901 (2017);
         "P. Giannozzi et al., J. Chem. Phys. 152 154105 (2020);
          URL http://www.quantum-espresso.org", 
     in publications or presentations arising from this work. More details at
     http://www.quantum-espresso.org/quote

     Parallel version (MPI & OpenMP), running on      32 processor cores
     Number of MPI processes:                 1
     Threads/MPI process:                    32

     MPI processes distributed on     1 nodes
     354329 MiB available memory on the printing compute node when the environment starts
 
     Waiting for input...
     Reading input from standard input
Warning: card &CELL ignored
Warning: card CELL_DYNAMICS='BFGS' ignored
Warning: card PRESS=0.0 ignored
Warning: card CELL_DOFREE='2DXY' ignored
Warning: card / ignored

     Current dimensions of program PWSCF are:
     Max number of different atomic species (ntypx) = 10
     Max number of k-points (npk) =  40000
     Max angular momentum in pseudopotentials (lmaxx) =  4
read_pp_mesh; mismatch in mesh size, discarding the one in header
read_pp_mesh; mismatch in mesh size, discarding the one in header
read_pp_mesh; mismatch in mesh size, discarding the one in header
     Message from routine setup:
     using ibrav=0 with symmetry is DISCOURAGED, use correct ibrav instead
 
     Subspace diagonalization in iterative solution of the eigenvalue problem:
     a serial algorithm will be used

 
     G-vector sticks info
     --------------------
     sticks:   dense  smooth     PW     G-vecs:    dense   smooth      PW
     Sum        8339    4161   1165              1831319   647193   96159
 
     Using Slab Decomposition
 


     bravais-lattice index     =            0
     lattice parameter (alat)  =      31.5246  a.u.
     unit-cell volume          =   10314.5405 (a.u.)^3
     number of atoms/cell      =           20
     number of atomic types    =            3
     number of electrons       =       220.00
     number of Kohn-Sham states=          132
     kinetic-energy cutoff     =      60.0000  Ry
     charge density cutoff     =     480.0000  Ry
     scf convergence threshold =      1.0E-08
     mixing beta               =       0.2000
     number of iterations used =            8  plain     mixing
     energy convergence thresh.=      1.0E-04
     force convergence thresh. =      1.0E-03
     Exchange-correlation= SLA PW PBX PBC
                           (   1   4   3   4   0   0   0)
     nstep                     =         2000


     GPU acceleration is ACTIVE.  1 visible GPUs per MPI rank
     GPU-aware MPI enabled


     celldm(1)=  31.524600  celldm(2)=   0.000000  celldm(3)=   0.000000
     celldm(4)=   0.000000  celldm(5)=   0.000000  celldm(6)=   0.000000

     crystal axes: (cart. coord. in units of alat)
               a(1) = (   1.000000   0.000000   0.000000 )  
               a(2) = (   0.000000   0.219378   0.000000 )  
               a(3) = (   0.000000   0.000000   1.500746 )  

     reciprocal axes: (cart. coord. in units 2 pi/alat)
               b(1) = (  1.000000  0.000000  0.000000 )  
               b(2) = (  0.000000  4.558334  0.000000 )  
               b(3) = (  0.000000  0.000000  0.666335 )  


     PseudoPot. # 1 for Ta read from file:
     /ddn/data/physics/eamoujaes/PSEUDO-CREATED/Ta.upf
     MD5 check sum: d865b2c2c09566b116f2b8decb2c153d
     Pseudo is Projector augmented-wave + core cor, Zval = 13.0
     Generated using ATOMPAW code
     Shape of augmentation charge: SINC**2
     Using radial grid of 2342 points,  6 beta functions with: 
                l(1) =   0
                l(2) =   0
                l(3) =   1
                l(4) =   1
                l(5) =   2
                l(6) =   2
     Q(r) pseudized with 0 coefficients 


     PseudoPot. # 2 for Ni read from file:
     /ddn/data/physics/eamoujaes/PSEUDO-CREATED/Ni.upf
     MD5 check sum: 85a2a5d9d38f4289a1cc30d5adb66a03
     Pseudo is Projector augmented-wave + core cor, Zval = 18.0
     Generated using ATOMPAW code
     Shape of augmentation charge: SINC**2
     Using radial grid of 2342 points,  6 beta functions with: 
                l(1) =   0
                l(2) =   0
                l(3) =   1
                l(4) =   1
                l(5) =   2
                l(6) =   2
     Q(r) pseudized with 0 coefficients 


     PseudoPot. # 3 for Te read from file:
     /ddn/data/physics/eamoujaes/PSEUDO-CREATED/Te.upf
     MD5 check sum: 8d958f193a7511a138982c2e72838810
     Pseudo is Projector augmented-wave + core cor, Zval =  6.0
     Generated using ATOMPAW code
     Shape of augmentation charge: SINC**2
     Using radial grid of 2342 points,  4 beta functions with: 
                l(1) =   0
                l(2) =   0
                l(3) =   1
                l(4) =   1
     Q(r) pseudized with 0 coefficients 


     atomic species   valence    mass     pseudopotential
     Ta               13.00   180.94790     Ta( 1.00)
     Ni               18.00    58.69340     Ni( 1.00)
     Te                6.00   127.60000     Te( 1.00)

      2 Sym. Ops. (no inversion) found ( 1 have fractional translation)



   Cartesian axes

     site n.     atom                  positions (alat units)
         1        Ta     tau(   1) = (   0.9226561   0.0548446   0.7459397  )
         2        Ta     tau(   2) = (   0.3939283   0.1645338   0.7548208  )
         3        Ta     tau(   3) = (   0.1357836   0.0548446   0.7459292  )
         4        Ta     tau(   4) = (   0.6645119   0.1645338   0.7548304  )
         5        Ni     tau(   5) = (   0.7711504   0.0548446   0.7050485  )
         6        Ni     tau(   6) = (   0.2424215   0.1645338   0.7957118  )
         7        Ni     tau(   7) = (   0.2872820   0.0548446   0.7050325  )
         8        Ni     tau(   8) = (   0.8160100   0.1645338   0.7957272  )
         9        Ni     tau(   9) = (   0.5292108   0.0548446   0.7414058  )
        10        Ni     tau(  10) = (   0.0004842   0.1645338   0.7593534  )
        11        Te     tau(  11) = (   0.8519936   0.1645338   0.6315306  )
        12        Te     tau(  12) = (   0.3232640   0.0548446   0.8692294  )
        13        Te     tau(  13) = (   0.6351378   0.0548446   0.6305761  )
        14        Te     tau(  14) = (   0.1064105   0.1645338   0.8701839  )
        15        Te     tau(  15) = (   0.2064302   0.1645338   0.6315172  )
        16        Te     tau(  16) = (   0.7351586   0.0548446   0.8692426  )
        17        Te     tau(  17) = (   0.4233051   0.0548446   0.6305664  )
        18        Te     tau(  18) = (   0.9520325   0.1645338   0.8701942  )
        19        Te     tau(  19) = (   0.0004975   0.0548446   0.6496556  )
        20        Te     tau(  20) = (   0.5292234   0.1645338   0.8511025  )

     number of k points=    12  Gaussian smearing, width (Ry)=  0.0020
                       cart. coord. in units 2pi/alat
        k(    1) = (   0.0000000   0.0000000   0.0000000), wk =   0.1000000
        k(    2) = (   0.0000000   0.4558334   0.0000000), wk =   0.2000000
        k(    3) = (   0.0000000   0.9116668   0.0000000), wk =   0.2000000
        k(    4) = (   0.0000000   1.3675002   0.0000000), wk =   0.2000000
        k(    5) = (   0.0000000   1.8233337   0.0000000), wk =   0.2000000
        k(    6) = (   0.0000000  -2.2791671   0.0000000), wk =   0.1000000
        k(    7) = (  -0.5000000   0.0000000   0.0000000), wk =   0.1000000
        k(    8) = (  -0.5000000   0.4558334   0.0000000), wk =   0.2000000
        k(    9) = (  -0.5000000   0.9116668   0.0000000), wk =   0.2000000
        k(   10) = (  -0.5000000   1.3675002   0.0000000), wk =   0.2000000
        k(   11) = (  -0.5000000   1.8233337   0.0000000), wk =   0.2000000
        k(   12) = (  -0.5000000  -2.2791671   0.0000000), wk =   0.1000000

     Dense  grid:  1831319 G-vectors     FFT dimensions: ( 225,  50, 360)

     Smooth grid:   647193 G-vectors     FFT dimensions: ( 160,  36, 240)

     Estimated max dynamical RAM per process >       9.36 GB

     Initial potential from superposition of free atoms

     starting charge     219.9927, renormalised to     220.0000

     negative rho (up, down):  4.813E-02 0.000E+00
     Starting wfcs are  260 randomized atomic wfcs
     Checking if some PAW data can be deallocated... 

     total cpu time spent up to now is       64.9 secs

     Self-consistent Calculation

     iteration #  1     ecut=    60.00 Ry     beta= 0.20
     Davidson diagonalization with overlap
     ethr =  1.00E-02,  avg # of iterations =  2.9

     negative rho (up, down):  4.893E-02 0.000E+00

     total cpu time spent up to now is      102.2 secs

     total energy              =   -9106.84085870 Ry
     estimated scf accuracy    <       8.89205196 Ry

     iteration #  2     ecut=    60.00 Ry     beta= 0.20
     Davidson diagonalization with overlap
     ethr =  4.04E-03,  avg # of iterations =  2.0

     negative rho (up, down):  5.008E-02 0.000E+00

     total cpu time spent up to now is      139.5 secs

     total energy              =   -9105.64914469 Ry
     estimated scf accuracy    <      36.59470980 Ry

     iteration #  3     ecut=    60.00 Ry     beta= 0.20
     Davidson diagonalization with overlap
     ethr =  4.04E-03,  avg # of iterations =  2.0

     negative rho (up, down):  5.094E-02 0.000E+00

     total cpu time spent up to now is      176.3 secs

     total energy              =   -9107.33008308 Ry
     estimated scf accuracy    <      41.93550657 Ry

     iteration #  4     ecut=    60.00 Ry     beta= 0.20
     Davidson diagonalization with overlap
     ethr =  4.04E-03,  avg # of iterations =  1.0

     negative rho (up, down):  5.214E-02 0.000E+00

     total cpu time spent up to now is      212.8 secs

     total energy              =   -9109.06719762 Ry
     estimated scf accuracy    <       3.50921991 Ry

     iteration #  5     ecut=    60.00 Ry     beta= 0.20
     Davidson diagonalization with overlap
     ethr =  1.60E-03,  avg # of iterations =  1.0

     negative rho (up, down):  5.325E-02 0.000E+00

     total cpu time spent up to now is      249.4 secs

     total energy              =   -9109.12650423 Ry
     estimated scf accuracy    <       1.54252378 Ry

     iteration #  6     ecut=    60.00 Ry     beta= 0.20
     Davidson diagonalization with overlap
     ethr =  7.01E-04,  avg # of iterations =  1.0

     negative rho (up, down):  5.555E-02 0.000E+00

     total cpu time spent up to now is      286.2 secs

     total energy              =   -9109.04285779 Ry
     estimated scf accuracy    <       1.07960695 Ry

     iteration #  7     ecut=    60.00 Ry     beta= 0.20
     Davidson diagonalization with overlap
     ethr =  4.91E-04,  avg # of iterations =  1.0

     negative rho (up, down):  5.944E-02 0.000E+00

     total cpu time spent up to now is      322.9 secs

     total energy              =   -9108.98864827 Ry
     estimated scf accuracy    <       0.40983020 Ry

     iteration #  8     ecut=    60.00 Ry     beta= 0.20
     Davidson diagonalization with overlap
     ethr =  1.86E-04,  avg # of iterations =  5.0

     negative rho (up, down):  6.223E-02 0.000E+00

     total cpu time spent up to now is      360.1 secs

     total energy              =   -9109.03609769 Ry
     estimated scf accuracy    <       0.28048025 Ry

     iteration #  9     ecut=    60.00 Ry     beta= 0.20
     Davidson diagonalization with overlap
     ethr =  1.27E-04,  avg # of iterations =  4.1

     negative rho (up, down):  6.288E-02 0.000E+00

     total cpu time spent up to now is      397.3 secs

     total energy              =   -9109.00277926 Ry
     estimated scf accuracy    <       0.45254524 Ry

     iteration # 10     ecut=    60.00 Ry     beta= 0.20
     Davidson diagonalization with overlap
     ethr =  1.27E-04,  avg # of iterations =  1.3

     negative rho (up, down):  6.356E-02 0.000E+00

     total cpu time spent up to now is      433.8 secs

     total energy              =   -9109.02436490 Ry
     estimated scf accuracy    <       0.02686729 Ry

     iteration # 11     ecut=    60.00 Ry     beta= 0.20
     Davidson diagonalization with overlap
     c_bands:  1 eigenvalues not converged
     c_bands:  1 eigenvalues not converged
     c_bands:  1 eigenvalues not converged
     c_bands:  1 eigenvalues not converged
     ethr =  1.22E-05,  avg # of iterations = 16.1

     negative rho (up, down):  6.403E-02 0.000E+00

     total cpu time spent up to now is      473.1 secs

     total energy              =   -9109.02723122 Ry
     estimated scf accuracy    <       0.01776898 Ry

     iteration # 12     ecut=    60.00 Ry     beta= 0.20
     Davidson diagonalization with overlap
     ethr =  8.08E-06,  avg # of iterations =  2.8

     negative rho (up, down):  6.495E-02 0.000E+00

     total cpu time spent up to now is      510.2 secs

     total energy              =   -9109.02571664 Ry
     estimated scf accuracy    <       0.01448165 Ry

     iteration # 13     ecut=    60.00 Ry     beta= 0.20
     Davidson diagonalization with overlap
     ethr =  6.58E-06,  avg # of iterations =  1.2

     negative rho (up, down):  6.587E-02 0.000E+00

     total cpu time spent up to now is      546.7 secs

     total energy              =   -9109.02656933 Ry
     estimated scf accuracy    <       0.00145259 Ry

     iteration # 14     ecut=    60.00 Ry     beta= 0.20
     Davidson diagonalization with overlap
     c_bands:  1 eigenvalues not converged
     ethr =  6.60E-07,  avg # of iterations =  7.7

     negative rho (up, down):  6.622E-02 0.000E+00

     total cpu time spent up to now is      584.4 secs

     total energy              =   -9109.02669155 Ry
     estimated scf accuracy    <       0.00050364 Ry

     iteration # 15     ecut=    60.00 Ry     beta= 0.20
     Davidson diagonalization with overlap
     ethr =  2.29E-07,  avg # of iterations =  1.6

     negative rho (up, down):  6.635E-02 0.000E+00

     total cpu time spent up to now is      621.0 secs

     total energy              =   -9109.02672087 Ry
     estimated scf accuracy    <       0.00034941 Ry

     iteration # 16     ecut=    60.00 Ry     beta= 0.20
     Davidson diagonalization with overlap
     ethr =  1.59E-07,  avg # of iterations =  1.0

     negative rho (up, down):  6.646E-02 0.000E+00

     total cpu time spent up to now is      657.7 secs

     total energy              =   -9109.02673574 Ry
     estimated scf accuracy    <       0.00012780 Ry

     iteration # 17     ecut=    60.00 Ry     beta= 0.20
     Davidson diagonalization with overlap
     ethr =  5.81E-08,  avg # of iterations =  1.8

     negative rho (up, down):  6.653E-02 0.000E+00

     total cpu time spent up to now is      694.5 secs

     total energy              =   -9109.02674248 Ry
     estimated scf accuracy    <       0.00004623 Ry

     iteration # 18     ecut=    60.00 Ry     beta= 0.20
     Davidson diagonalization with overlap
     ethr =  2.10E-08,  avg # of iterations =  2.0

     negative rho (up, down):  6.658E-02 0.000E+00

     total cpu time spent up to now is      731.4 secs

     total energy              =   -9109.02674420 Ry
     estimated scf accuracy    <       0.00003985 Ry

     iteration # 19     ecut=    60.00 Ry     beta= 0.20
     Davidson diagonalization with overlap
     ethr =  1.81E-08,  avg # of iterations =  1.1

     negative rho (up, down):  6.656E-02 0.000E+00

     total cpu time spent up to now is      768.0 secs

     total energy              =   -9109.02674564 Ry
     estimated scf accuracy    <       0.00003045 Ry

     iteration # 20     ecut=    60.00 Ry     beta= 0.20
     Davidson diagonalization with overlap
     ethr =  1.38E-08,  avg # of iterations =  1.0

     negative rho (up, down):  6.651E-02 0.000E+00

     total cpu time spent up to now is      804.5 secs

     total energy              =   -9109.02674717 Ry
     estimated scf accuracy    <       0.00000370 Ry

     iteration # 21     ecut=    60.00 Ry     beta= 0.20
     Davidson diagonalization with overlap
     ethr =  1.68E-09,  avg # of iterations =  2.2

     negative rho (up, down):  6.651E-02 0.000E+00

     total cpu time spent up to now is      841.5 secs

     total energy              =   -9109.02674770 Ry
     estimated scf accuracy    <       0.00000214 Ry

     iteration # 22     ecut=    60.00 Ry     beta= 0.20
     Davidson diagonalization with overlap
     ethr =  9.74E-10,  avg # of iterations =  1.5

     negative rho (up, down):  6.647E-02 0.000E+00

     total cpu time spent up to now is      878.2 secs

     total energy              =   -9109.02674776 Ry
     estimated scf accuracy    <       0.00000093 Ry

     iteration # 23     ecut=    60.00 Ry     beta= 0.20
     Davidson diagonalization with overlap
     ethr =  4.22E-10,  avg # of iterations =  2.0

     negative rho (up, down):  6.643E-02 0.000E+00

     total cpu time spent up to now is      915.0 secs

     total energy              =   -9109.02674778 Ry
     estimated scf accuracy    <       0.00000060 Ry

     iteration # 24     ecut=    60.00 Ry     beta= 0.20
     Davidson diagonalization with overlap
     ethr =  2.71E-10,  avg # of iterations =  1.6

     negative rho (up, down):  6.642E-02 0.000E+00

     total cpu time spent up to now is      951.6 secs

     total energy              =   -9109.02674785 Ry
     estimated scf accuracy    <       0.00000023 Ry

     iteration # 25     ecut=    60.00 Ry     beta= 0.20
     Davidson diagonalization with overlap
     ethr =  1.07E-10,  avg # of iterations =  2.0

     negative rho (up, down):  6.640E-02 0.000E+00

     total cpu time spent up to now is      988.4 secs

     total energy              =   -9109.02674787 Ry
     estimated scf accuracy    <       0.00000011 Ry

     iteration # 26     ecut=    60.00 Ry     beta= 0.20
     Davidson diagonalization with overlap
     ethr =  5.18E-11,  avg # of iterations =  2.0

     negative rho (up, down):  6.639E-02 0.000E+00

     total cpu time spent up to now is     1025.4 secs

     total energy              =   -9109.02674787 Ry
     estimated scf accuracy    <       0.00000009 Ry

     iteration # 27     ecut=    60.00 Ry     beta= 0.20
     Davidson diagonalization with overlap
     ethr =  4.19E-11,  avg # of iterations =  1.1

     negative rho (up, down):  6.638E-02 0.000E+00

     total cpu time spent up to now is     1062.0 secs

     total energy              =   -9109.02674788 Ry
     estimated scf accuracy    <       0.00000003 Ry

     iteration # 28     ecut=    60.00 Ry     beta= 0.20
     Davidson diagonalization with overlap
     ethr =  1.23E-11,  avg # of iterations =  2.0

     negative rho (up, down):  6.637E-02 0.000E+00

     total cpu time spent up to now is     1098.8 secs

     total energy              =   -9109.02674789 Ry
     estimated scf accuracy    <       0.00000001 Ry

     iteration # 29     ecut=    60.00 Ry     beta= 0.20
     Davidson diagonalization with overlap
     ethr =  4.88E-12,  avg # of iterations =  2.0

     negative rho (up, down):  6.635E-02 0.000E+00

     total cpu time spent up to now is     1135.4 secs

     End of self-consistent calculation

          k = 0.0000 0.0000 0.0000 ( 81157 PWs)   bands (ev):

  -103.8451-103.1006-103.0844-102.9525-102.7712-102.6778 -68.3952 -68.3128
   -68.2537 -67.5619 -64.3701 -64.3153 -64.2503 -63.6718 -63.6445 -63.5318
   -63.5309 -63.4586 -63.3905 -63.3560 -63.3460 -63.3436 -63.2333 -63.1756
   -63.1552 -63.1438 -63.0604 -62.9598 -34.8760 -34.8740 -34.8466 -34.8248
   -34.7945 -34.7733 -34.7533 -34.7469 -34.7322 -34.7059 -34.2171 -34.2076
   -14.3396 -13.2960 -12.5264 -12.2751 -11.8570 -11.6715 -11.5456 -11.4666
   -11.3235 -11.1767  -6.8819  -6.3369  -5.7279  -5.6752  -5.4966  -5.2781
    -5.1367  -4.9550  -4.8314  -4.5290  -4.1850  -4.1651  -3.8672  -3.7363
    -3.7330  -3.5886  -3.4436  -3.4227  -3.3534  -3.1457  -3.1364  -3.0190
    -2.8486  -2.6877  -2.6720  -2.5805  -2.5521  -2.5406  -2.3654  -2.2006
    -2.1677  -2.0857  -2.0131  -1.8779  -1.7820  -1.7547  -1.6979  -1.5915
    -1.5681  -1.4991  -1.4613  -1.3511  -1.2446  -1.1423  -1.0396  -0.9866
    -0.9566  -0.9176  -0.8549  -0.8083  -0.6966  -0.5521  -0.5133  -0.4462
    -0.3400  -0.1901  -0.1338   0.0218   0.2123   0.2227   0.3017   0.6310
     0.9641   1.0822   1.2274   1.3138   1.5177   1.6925   1.9423   1.9428
     2.2258   2.2894   2.5354   2.8372   3.1511   3.2126   3.2502   3.5006
     3.5812   3.5880   3.7725   3.7963

          k = 0.0000 0.4558 0.0000 ( 81081 PWs)   bands (ev):

  -103.8451-103.1004-103.0846-102.9525-102.7712-102.6778 -68.3950 -68.3126
   -68.2535 -67.5623 -64.3701 -64.3162 -64.2487 -63.6718 -63.6445 -63.5311
   -63.5309 -63.4608 -63.3883 -63.3568 -63.3465 -63.3425 -63.2343 -63.1755
   -63.1544 -63.1438 -63.0603 -62.9598 -34.8749 -34.8730 -34.8459 -34.8318
   -34.7937 -34.7805 -34.7539 -34.7525 -34.7313 -34.7050 -34.2253 -34.2056
   -14.2702 -13.2235 -12.4358 -12.1897 -11.7905 -11.6229 -11.4934 -11.4104
   -11.2813 -11.1428  -6.7959  -6.2695  -5.6951  -5.6416  -5.4204  -5.1858
    -5.0573  -5.0303  -4.7467  -4.4740  -4.2235  -4.1589  -3.9230  -3.7515
    -3.6896  -3.5975  -3.5333  -3.4396  -3.3806  -3.3561  -3.2075  -3.1080
    -3.0085  -2.8203  -2.7661  -2.7272  -2.5533  -2.5334  -2.4314  -2.3235
    -2.2354  -2.1726  -2.0846  -1.9404  -1.8858  -1.8160  -1.7372  -1.6904
    -1.6032  -1.5043  -1.5022  -1.4456  -1.3874  -1.3350  -1.1441  -1.0891
    -1.0459  -0.9631  -0.8748  -0.7990  -0.7061  -0.5902  -0.5360  -0.5010
    -0.3603  -0.2251  -0.1026   0.0106   0.1797   0.3493   0.4766   0.6015
     0.8124   1.0494   1.1400   1.3587   1.4790   1.6914   1.8109   1.8903
     2.2086   2.2772   2.3188   2.6701   2.8446   3.0169   3.0517   3.1737
     3.3915   3.5220   3.7505   3.9384

          k = 0.0000 0.9117 0.0000 ( 81001 PWs)   bands (ev):

  -103.8451-103.0999-103.0851-102.9524-102.7712-102.6778 -68.3946 -68.3122
   -68.2531 -67.5634 -64.3702 -64.3182 -64.2449 -63.6717 -63.6446 -63.5308
   -63.5294 -63.4665 -63.3826 -63.3586 -63.3481 -63.3402 -63.2368 -63.1754
   -63.1525 -63.1438 -63.0601 -62.9599 -34.8720 -34.8706 -34.8501 -34.8440
   -34.7994 -34.7917 -34.7721 -34.7502 -34.7292 -34.7026 -34.2466 -34.2008
   -14.0827 -13.0096 -12.1768 -11.9476 -11.6154 -11.4891 -11.3532 -11.2560
   -11.1687 -11.0521  -6.5996  -6.0873  -5.8501  -5.4264  -5.2532  -5.1291
    -4.9463  -4.8500  -4.6486  -4.5927  -4.3109  -4.2388  -4.0791  -4.0333
    -3.8105  -3.7638  -3.7158  -3.6626  -3.5670  -3.4438  -3.3668  -3.2431
    -3.2022  -3.0298  -2.9720  -2.8516  -2.7890  -2.5766  -2.5480  -2.4603
    -2.3697  -2.3339  -2.2236  -2.1622  -2.1066  -1.9270  -1.9067  -1.8509
    -1.7460  -1.6568  -1.5868  -1.5057  -1.4986  -1.4408  -1.3072  -1.2382
    -1.1862  -1.1144  -0.9167  -0.8409  -0.7954  -0.7379  -0.6413  -0.6053
    -0.5069  -0.4096  -0.1689  -0.0507   0.0096   0.2940   0.5047   0.8564
     0.9993   1.0533   1.2389   1.3088   1.4021   1.5783   1.7566   1.9137
     1.9301   2.2343   2.3193   2.3931   2.5991   2.7166   2.8627   3.0732
     3.2912   3.8346   4.0026   4.2736

          k = 0.0000 1.3675 0.0000 ( 80955 PWs)   bands (ev):

  -103.8451-103.0992-103.0858-102.9524-102.7713-102.6778 -68.3941 -68.3117
   -68.2526 -67.5647 -64.3703 -64.3206 -64.2404 -63.6718 -63.6449 -63.5309
   -63.5267 -63.4734 -63.3756 -63.3605 -63.3508 -63.3377 -63.2399 -63.1755
   -63.1503 -63.1438 -63.0600 -62.9598 -34.8729 -34.8684 -34.8672 -34.8418
   -34.8225 -34.7950 -34.7888 -34.7474 -34.7266 -34.6996 -34.2727 -34.1948
   -13.8402 -12.6687 -11.7943 -11.6018 -11.4000 -11.3093 -11.2095 -11.0479
   -11.0072 -10.9341  -6.5838  -6.0447  -5.8712  -5.6674  -5.2703  -5.2346
    -4.9756  -4.9463  -4.7481  -4.7255  -4.4532  -4.3338  -4.2371  -4.1529
    -3.9997  -3.9129  -3.8513  -3.7308  -3.6411  -3.5511  -3.4691  -3.3351
    -3.2321  -3.1268  -3.0802  -2.9749  -2.8750  -2.7871  -2.6481  -2.6186
    -2.5104  -2.4282  -2.3365  -2.2829  -2.1678  -2.1113  -2.0301  -1.9254
    -1.8692  -1.7337  -1.7040  -1.6506  -1.5415  -1.5323  -1.3265  -1.2752
    -1.2256  -1.1616  -1.1544  -0.9874  -0.9519  -0.8798  -0.8059  -0.7514
    -0.6036  -0.4702  -0.3411  -0.2553  -0.1883   0.0175   0.4511   0.8829
     1.0879   1.1952   1.3956   1.4292   1.5253   1.6385   1.8097   1.9448
     2.1026   2.1912   2.4583   2.6063   2.6581   2.7861   2.8441   3.1827
     3.5764   3.6226   3.7174   3.9153

          k = 0.0000 1.8233 0.0000 ( 80831 PWs)   bands (ev):

  -103.8450-103.0985-103.0864-102.9523-102.7713-102.6777 -68.3937 -68.3113
   -68.2521 -67.5657 -64.3704 -64.3223 -64.2368 -63.6719 -63.6451 -63.5310
   -63.5239 -63.4789 -63.3686 -63.3617 -63.3544 -63.3358 -63.2422 -63.1755
   -63.1485 -63.1437 -63.0598 -62.9597 -34.8908 -34.8654 -34.8650 -34.8419
   -34.8391 -34.8128 -34.7870 -34.7451 -34.7246 -34.6971 -34.2937 -34.1900
   -13.6357 -12.2523 -11.3894 -11.3509 -11.2380 -11.1579 -11.0962 -10.9038
   -10.8612 -10.7988  -6.8322  -6.3544  -6.1626  -5.9367  -5.6015  -5.4747
    -5.1964  -5.0531  -4.9531  -4.7395  -4.5597  -4.3493  -4.2932  -4.0757
    -3.9867  -3.8226  -3.6868  -3.6452  -3.5877  -3.5374  -3.3778  -3.3266
    -3.2226  -3.1676  -3.1313  -3.0148  -3.0005  -2.9227  -2.8576  -2.6397
    -2.6092  -2.4704  -2.3561  -2.3141  -2.2079  -2.1571  -2.1190  -1.9271
    -1.8537  -1.8189  -1.7614  -1.7387  -1.6047  -1.5173  -1.3924  -1.3565
    -1.3232  -1.2852  -1.1364  -1.0667  -1.0165  -0.9998  -0.9461  -0.8737
    -0.6583  -0.5768  -0.5325  -0.3871  -0.2701  -0.1364   0.2422   0.7058
     0.9664   1.3358   1.4280   1.5041   1.7150   1.9057   2.0899   2.1490
     2.2119   2.3567   2.4654   2.5697   2.8892   3.0288   3.1567   3.2818
     3.4371   3.4985   3.6581   3.7049

          k = 0.0000-2.2792 0.0000 ( 80706 PWs)   bands (ev):

  -103.8450-103.0982-103.0867-102.9523-102.7713-102.6777 -68.3935 -68.3111
   -68.2520 -67.5661 -64.3703 -64.3229 -64.2353 -63.6718 -63.6452 -63.5309
   -63.5225 -63.4810 -63.3646 -63.3621 -63.3572 -63.3350 -63.2430 -63.1755
   -63.1476 -63.1437 -63.0597 -62.9595 -34.8977 -34.8643 -34.8640 -34.8485
   -34.8389 -34.8197 -34.7863 -34.7442 -34.7238 -34.6961 -34.3017 -34.1882
   -13.5558 -11.9847 -11.4373 -11.1999 -11.1107 -11.1044 -10.9268 -10.9213
   -10.8331 -10.7264  -6.9291  -6.6004  -6.3512  -6.0475  -5.8003  -5.6230
    -5.3501  -5.1546  -4.7669  -4.7591  -4.5886  -4.4467  -4.3331  -3.8659
    -3.7755  -3.7562  -3.7258  -3.6850  -3.6293  -3.4212  -3.3468  -3.2687
    -3.2109  -3.2010  -3.1871  -3.1379  -3.0784  -2.9012  -2.8422  -2.6809
    -2.6025  -2.5128  -2.3207  -2.2652  -2.2360  -2.1423  -2.0722  -1.9482
    -1.8978  -1.8490  -1.7586  -1.7274  -1.5927  -1.5341  -1.4902  -1.4729
    -1.3195  -1.2887  -1.1256  -1.1050  -1.0593  -1.0187  -0.9652  -0.8759
    -0.7942  -0.6973  -0.6142  -0.3452  -0.2685  -0.2041   0.1757   0.6528
     0.8647   1.4061   1.4179   1.4720   1.7718   1.8625   1.9239   2.3032
     2.4010   2.4776   2.6687   2.7567   2.8119   3.0881   3.0920   3.3660
     3.5111   3.5539   3.7626   3.7728

          k =-0.5000 0.0000 0.0000 ( 81086 PWs)   bands (ev):

  -103.8451-103.1006-103.0844-102.9525-102.7712-102.6778 -68.3952 -68.3128
   -68.2537 -67.5619 -64.3701 -64.3152 -64.2502 -63.6717 -63.6444 -63.5317
   -63.5308 -63.4585 -63.3905 -63.3559 -63.3460 -63.3435 -63.2333 -63.1755
   -63.1551 -63.1438 -63.0604 -62.9597 -34.8760 -34.8740 -34.8466 -34.8248
   -34.7945 -34.7733 -34.7533 -34.7469 -34.7322 -34.7059 -34.2171 -34.2076
   -14.3394 -13.2965 -12.5657 -12.1359 -11.9546 -11.7578 -11.5109 -11.4440
   -11.2578 -11.2134  -6.8865  -6.3508  -5.8148  -5.6549  -5.4499  -5.2014
    -5.1019  -4.9550  -4.7608  -4.5866  -4.3621  -4.0991  -4.0049  -3.7360
    -3.6874  -3.4494  -3.4259  -3.3866  -3.2880  -3.1157  -3.1084  -3.0362
    -2.9824  -2.7505  -2.7022  -2.6743  -2.5099  -2.4845  -2.3643  -2.2831
    -2.2071  -1.9918  -1.9610  -1.8804  -1.8380  -1.7559  -1.6801  -1.6115
    -1.5894  -1.5083  -1.3837  -1.3235  -1.2996  -1.1417  -1.0239  -0.9698
    -0.9278  -0.8801  -0.8381  -0.8003  -0.7754  -0.5925  -0.5171  -0.3482
    -0.2692  -0.2258  -0.1798   0.0361   0.1929   0.2353   0.3010   0.6471
     0.9309   1.0544   1.3294   1.3560   1.5106   1.6375   1.8386   1.9767
     2.1187   2.3979   2.6086   2.7473   3.0824   3.1781   3.2880   3.3161
     3.5758   3.6823   3.7935   3.8691

          k =-0.5000 0.4558 0.0000 ( 81074 PWs)   bands (ev):

  -103.8451-103.1004-103.0846-102.9525-102.7712-102.6778 -68.3950 -68.3126
   -68.2535 -67.5623 -64.3701 -64.3162 -64.2487 -63.6718 -63.6446 -63.5311
   -63.5309 -63.4608 -63.3882 -63.3568 -63.3464 -63.3425 -63.2342 -63.1755
   -63.1544 -63.1438 -63.0602 -62.9597 -34.8749 -34.8730 -34.8459 -34.8318
   -34.7937 -34.7805 -34.7539 -34.7525 -34.7313 -34.7050 -34.2253 -34.2056
   -14.2700 -13.2237 -12.4752 -12.0520 -11.8794 -11.7081 -11.4620 -11.3986
   -11.2164 -11.1734  -6.7995  -6.2816  -5.7569  -5.6288  -5.3876  -5.1595
    -5.0292  -4.9708  -4.7025  -4.5228  -4.3496  -4.1053  -4.0491  -3.8011
    -3.6508  -3.5233  -3.4712  -3.4218  -3.3397  -3.2790  -3.1669  -3.1048
    -3.0379  -2.9086  -2.8843  -2.6959  -2.5605  -2.5087  -2.4494  -2.3798
    -2.2218  -2.1774  -2.0389  -1.9754  -1.8624  -1.7964  -1.7789  -1.6864
    -1.6309  -1.5577  -1.4777  -1.3989  -1.3700  -1.2521  -1.2032  -1.0588
    -1.0423  -1.0032  -0.8562  -0.8200  -0.7011  -0.6619  -0.5660  -0.4334
    -0.2913  -0.2558  -0.0788   0.0367   0.1670   0.3494   0.4881   0.6137
     0.8628   1.0792   1.0875   1.4496   1.5013   1.5857   1.7737   1.9443
     2.0918   2.2536   2.4085   2.5592   2.9134   2.9673   2.9982   3.2432
     3.2800   3.5336   3.6520   3.9980

          k =-0.5000 0.9117 0.0000 ( 81030 PWs)   bands (ev):

  -103.8451-103.0999-103.0851-102.9524-102.7712-102.6778 -68.3946 -68.3122
   -68.2531 -67.5634 -64.3702 -64.3183 -64.2449 -63.6718 -63.6447 -63.5309
   -63.5294 -63.4665 -63.3826 -63.3587 -63.3481 -63.3402 -63.2368 -63.1755
   -63.1525 -63.1438 -63.0601 -62.9598 -34.8720 -34.8706 -34.8501 -34.8440
   -34.7993 -34.7917 -34.7721 -34.7502 -34.7292 -34.7026 -34.2466 -34.2008
   -14.0826 -13.0095 -12.2156 -11.8169 -11.6746 -11.5663 -11.3422 -11.2741
   -11.1014 -11.0671  -6.5984  -6.0928  -5.8461  -5.4735  -5.2341  -5.1554
    -4.8727  -4.8220  -4.7230  -4.4699  -4.3276  -4.3097  -4.1411  -4.0361
    -3.8784  -3.8267  -3.6669  -3.5701  -3.4739  -3.3637  -3.3124  -3.2722
    -3.2113  -3.0669  -2.9867  -2.8929  -2.7268  -2.6770  -2.5616  -2.4419
    -2.3851  -2.3545  -2.2452  -2.1075  -2.0976  -1.9686  -1.9500  -1.8668
    -1.7631  -1.6593  -1.6392  -1.4833  -1.4118  -1.3562  -1.3266  -1.2504
    -1.1847  -1.0793  -1.0401  -0.9092  -0.8075  -0.6963  -0.6260  -0.5936
    -0.5492  -0.3699  -0.1502  -0.0498   0.0653   0.3536   0.5592   0.8176
     1.0205   1.0583   1.1631   1.3807   1.5329   1.6153   1.6954   1.8010
     1.9777   2.0410   2.2371   2.4188   2.6691   2.8655   2.9133   2.9574
     3.1516   3.8266   4.0178   4.1980

          k =-0.5000 1.3675 0.0000 ( 80956 PWs)   bands (ev):

  -103.8451-103.0992-103.0858-102.9524-102.7713-102.6778 -68.3941 -68.3117
   -68.2526 -67.5647 -64.3703 -64.3206 -64.2404 -63.6718 -63.6449 -63.5309
   -63.5268 -63.4734 -63.3755 -63.3605 -63.3508 -63.3378 -63.2398 -63.1755
   -63.1503 -63.1438 -63.0600 -62.9599 -34.8729 -34.8684 -34.8672 -34.8418
   -34.8225 -34.7950 -34.7888 -34.7474 -34.7266 -34.6996 -34.2727 -34.1948
   -13.8401 -12.6684 -11.8293 -11.4923 -11.4267 -11.3429 -11.2319 -11.1033
   -10.9476 -10.9304  -6.5754  -6.0455  -5.8645  -5.6492  -5.3537  -5.2025
    -5.0408  -4.9736  -4.7337  -4.6528  -4.4157  -4.2822  -4.2705  -4.1394
    -4.0725  -3.9607  -3.8326  -3.6731  -3.6514  -3.5317  -3.4225  -3.3310
    -3.1872  -3.1768  -3.0366  -2.9563  -2.8640  -2.7939  -2.7001  -2.6195
    -2.5429  -2.4415  -2.3431  -2.2822  -2.1873  -2.1045  -2.0379  -1.9722
    -1.8576  -1.7598  -1.7346  -1.6543  -1.5732  -1.4315  -1.3444  -1.2901
    -1.2477  -1.1411  -1.1111  -0.9920  -0.9409  -0.8640  -0.8218  -0.7511
    -0.6212  -0.4716  -0.3765  -0.2885  -0.1738   0.0589   0.4992   0.8257
     1.1472   1.3406   1.4048   1.4862   1.6093   1.6336   1.6427   1.9401
     2.0177   2.2165   2.3416   2.4787   2.7334   2.8895   2.9859   3.1096
     3.4592   3.6039   3.7120   4.0230

          k =-0.5000 1.8233 0.0000 ( 80846 PWs)   bands (ev):

  -103.8450-103.0985-103.0864-102.9523-102.7713-102.6777 -68.3937 -68.3113
   -68.2521 -67.5657 -64.3704 -64.3223 -64.2368 -63.6719 -63.6451 -63.5310
   -63.5239 -63.4789 -63.3687 -63.3617 -63.3545 -63.3358 -63.2422 -63.1755
   -63.1485 -63.1438 -63.0598 -62.9597 -34.8908 -34.8654 -34.8650 -34.8419
   -34.8391 -34.8128 -34.7870 -34.7451 -34.7246 -34.6971 -34.2937 -34.1900
   -13.6357 -12.2520 -11.4239 -11.3043 -11.2415 -11.1696 -11.0772 -10.9400
   -10.8405 -10.7997  -6.8323  -6.3590  -6.1674  -5.9410  -5.5163  -5.3988
    -5.2816  -5.2303  -4.8475  -4.7255  -4.5347  -4.4064  -4.3214  -4.0994
    -3.9291  -3.8271  -3.7494  -3.6482  -3.5844  -3.4799  -3.3329  -3.2771
    -3.2105  -3.1789  -3.1061  -3.0305  -2.9815  -2.9194  -2.9010  -2.6895
    -2.5112  -2.4640  -2.3937  -2.3734  -2.2363  -2.0944  -2.0834  -1.9859
    -1.8736  -1.8260  -1.8026  -1.7164  -1.6582  -1.4865  -1.4128  -1.3283
    -1.2893  -1.2551  -1.1637  -1.0777  -1.0440  -0.9644  -0.9149  -0.8377
    -0.7089  -0.6227  -0.5263  -0.4625  -0.2725  -0.0925   0.2638   0.7062
     0.9784   1.3730   1.4988   1.6662   1.7124   1.9560   2.0170   2.0815
     2.1812   2.2746   2.3938   2.6650   2.7749   2.9796   3.1559   3.3071
     3.4092   3.4885   3.6324   3.7597

          k =-0.5000-2.2792 0.0000 ( 80704 PWs)   bands (ev):

  -103.8450-103.0982-103.0867-102.9523-102.7713-102.6777 -68.3935 -68.3111
   -68.2520 -67.5661 -64.3704 -64.3229 -64.2352 -63.6718 -63.6451 -63.5309
   -63.5224 -63.4809 -63.3647 -63.3620 -63.3573 -63.3349 -63.2431 -63.1755
   -63.1476 -63.1438 -63.0598 -62.9594 -34.8977 -34.8643 -34.8640 -34.8484
   -34.8389 -34.8197 -34.7863 -34.7442 -34.7238 -34.6961 -34.3017 -34.1882
   -13.5558 -11.9847 -11.4371 -11.1999 -11.1109 -11.1047 -10.9298 -10.9217
   -10.8298 -10.7257  -6.9383  -6.6026  -6.3668  -6.0651  -5.6944  -5.5119
    -5.4278  -5.2660  -4.7502  -4.7460  -4.6630  -4.4557  -4.2976  -3.8324
    -3.8142  -3.8065  -3.7118  -3.6781  -3.5276  -3.4748  -3.3207  -3.2724
    -3.2644  -3.1618  -3.1618  -3.1354  -3.0855  -2.9104  -2.8660  -2.6726
    -2.5073  -2.4660  -2.3664  -2.3448  -2.1474  -2.1249  -2.0835  -1.9763
    -1.9127  -1.8666  -1.7854  -1.7336  -1.6264  -1.5378  -1.5110  -1.4404
    -1.2827  -1.2799  -1.1400  -1.1335  -1.0274  -1.0005  -0.9708  -0.8596
    -0.8481  -0.6998  -0.6306  -0.3512  -0.2868  -0.1906   0.1847   0.6802
     0.8619   1.4156   1.4842   1.4863   1.7066   1.9056   2.1131   2.2727
     2.4310   2.4739   2.5276   2.6469   2.7259   2.9756   3.1463   3.3425
     3.3936   3.4886   3.8503   3.9102

     the Fermi energy is     0.2984 ev

!    total energy              =   -9109.02674789 Ry
     total all-electron energy =     -9109.026748 Ry
     estimated scf accuracy    <          5.0E-09 Ry
     smearing contrib. (-TS)   =      -0.00025436 Ry
     internal energy E=F+TS    =   -9109.02649353 Ry

     The total energy is F=E-TS. E is the sum of the following terms:
     one-electron contribution =  -17229.88672194 Ry
     hartree contribution      =    8475.64059136 Ry
     xc contribution           =    -366.29813728 Ry
     ewald contribution        =    6279.32596402 Ry
     one-center paw contrib.   =   -6267.80818969 Ry

     convergence has been achieved in  29 iterations

     negative rho (up, down):  6.635E-02 0.000E+00

     Forces acting on atoms (cartesian axes, Ry/au):

     atom    1 type  1   force =    -0.70168328    0.00000000    0.64058721
     atom    2 type  1   force =     0.00666756    0.00000000   -0.00089173
     atom    3 type  1   force =     0.03014311    0.00000000    0.01593899
     atom    4 type  1   force =     0.00511845    0.00000000   -0.00577638
     atom    5 type  2   force =    -0.01544841    0.00000000   -0.00827374
     atom    6 type  2   force =     0.00754073    0.00000000   -0.00977280
     atom    7 type  2   force =     0.00140893    0.00000000   -0.00240033
     atom    8 type  2   force =    -0.03555092    0.00000000    0.00718271
     atom    9 type  2   force =    -0.00346631    0.00000000    0.00099753
     atom   10 type  2   force =     0.36533471    0.00000000   -0.32142476
     atom   11 type  3   force =    -0.08981447    0.00000000   -0.02310218
     atom   12 type  3   force =    -0.00484956    0.00000000    0.00137865
     atom   13 type  3   force =     0.00073622    0.00000000    0.00005327
     atom   14 type  3   force =     0.18334862    0.00000000    0.01807157
     atom   15 type  3   force =    -0.00422121    0.00000000    0.00060142
     atom   16 type  3   force =     0.00497542    0.00000000    0.00404069
     atom   17 type  3   force =     0.00047229    0.00000000    0.00008075
     atom   18 type  3   force =    -0.35630386    0.00000000    0.41882662
     atom   19 type  3   force =     0.60909527    0.00000000   -0.73692569
     atom   20 type  3   force =    -0.00350329    0.00000000    0.00080820

     Total force =     1.549718     Total SCF correction =     0.000332


     Computing stress (Cartesian axis) and pressure


     negative rho (up, down):  6.635E-02 0.000E+00
          total   stress  (Ry/bohr**3)                   (kbar)     P=       40.53
   0.00035412   0.00000000  -0.00020071           52.09        0.00      -29.53
   0.00000000   0.00013300   0.00000000            0.00       19.57        0.00
  -0.00020071   0.00000000   0.00033943          -29.53        0.00       49.93


     BFGS Geometry Optimization
     Energy error            =      0.0E+00 Ry
     Gradient error          =      7.4E-01 Ry/Bohr

     number of scf cycles    =   1
     number of bfgs steps    =   0

     energy             new  =   -9109.0267478877 Ry

     new trust radius        =       0.5000000000 bohr
     new conv_thr            =       0.0000000100 Ry


ATOMIC_POSITIONS (angstrom)
Ta              15.1976513280        0.9149235643       12.6211215125
Ta               6.5733957471        2.7447696811       12.5917495484
Ta               2.2734976625        0.9149235643       12.4480770454
Ta              11.0868698690        2.7447696811       12.5905578845
Ni              12.8601328401        0.9149235643       11.7593998531
Ni               4.0461870097        2.7447696811       13.2714393477
Ni               4.7928566412        0.9149235643       11.7607586709
Ni              13.6029219642        2.7447696811       13.2763888105
Ni               8.8273873709        0.9149235643       12.3684816627
Ni               0.1091825820        2.7447696811       12.5786561265
Te              14.1881863920        2.7447696811       10.5288632680
Te               5.3913797491        0.9149235643       14.5009536452
Te              10.5956368642        0.9149235643       10.5193486171
Te               1.8258914636        2.7447696811       14.5214962282
Te               3.4425204793        2.7447696811       10.5351999829
Te              12.2653664749        0.9149235643       14.5019108006
Te               7.0617491272        0.9149235643       10.5191936202
Te              15.7832954971        2.7447696811       14.6325765895
Te               0.1768648682        0.9149235643       10.6336762983
Te               8.8275884329        2.7447696811       14.1984014876



     Writing config-only to output data dir /ddn/data/physics/eamoujaes/2D-Ta2Ni3Te5/ELASTIC/OUT/ta2ni3te5.save/ :
     XML data file
     NEW-OLD atomic charge density approx. for the potential

     negative rho (up, down):  6.493E-02 0.000E+00

     total cpu time spent up to now is     1229.6 secs

     Self-consistent Calculation

     iteration #  1     ecut=    60.00 Ry     beta= 0.20
     Davidson diagonalization with overlap
     c_bands:  2 eigenvalues not converged
     c_bands:  1 eigenvalues not converged
     c_bands:  1 eigenvalues not converged
     c_bands:  2 eigenvalues not converged
     c_bands:  2 eigenvalues not converged
     c_bands:  2 eigenvalues not converged
     c_bands:  1 eigenvalues not converged
     c_bands:  1 eigenvalues not converged
     c_bands:  2 eigenvalues not converged
     c_bands:  2 eigenvalues not converged
     c_bands:  2 eigenvalues not converged
     ethr =  1.00E-06,  avg # of iterations = 19.5

     negative rho (up, down):  6.495E-02 0.000E+00

     total cpu time spent up to now is     1272.9 secs

     total energy              =   -9108.88640261 Ry
     estimated scf accuracy    <       2.61064937 Ry

     iteration #  2     ecut=    60.00 Ry     beta= 0.20
     Davidson diagonalization with overlap
     ethr =  1.19E-03,  avg # of iterations =  3.0

     negative rho (up, down):  6.502E-02 0.000E+00

     total cpu time spent up to now is     1309.6 secs

     total energy              =   -9107.65212862 Ry
     estimated scf accuracy    <      44.68772274 Ry

     iteration #  3     ecut=    60.00 Ry     beta= 0.20
     Davidson diagonalization with overlap
     ethr =  1.19E-03,  avg # of iterations =  2.3

     negative rho (up, down):  6.500E-02 0.000E+00

     total cpu time spent up to now is     1346.1 secs

     total energy              =   -9109.63533510 Ry
     estimated scf accuracy    <       4.61481208 Ry

     iteration #  4     ecut=    60.00 Ry     beta= 0.20
     Davidson diagonalization with overlap
     ethr =  1.19E-03,  avg # of iterations =  1.0

     negative rho (up, down):  6.501E-02 0.000E+00

     total cpu time spent up to now is     1382.4 secs

     total energy              =   -9109.71589053 Ry
     estimated scf accuracy    <       0.85804969 Ry

     iteration #  5     ecut=    60.00 Ry     beta= 0.20
     Davidson diagonalization with overlap
     ethr =  3.90E-04,  avg # of iterations =  1.0

     negative rho (up, down):  6.497E-02 0.000E+00

     total cpu time spent up to now is     1418.9 secs

     total energy              =   -9109.70304055 Ry
     estimated scf accuracy    <       0.12523242 Ry

     iteration #  6     ecut=    60.00 Ry     beta= 0.20
     Davidson diagonalization with overlap
     ethr =  5.69E-05,  avg # of iterations =  2.0

     negative rho (up, down):  6.494E-02 0.000E+00

     total cpu time spent up to now is     1455.5 secs

     total energy              =   -9109.69183524 Ry
     estimated scf accuracy    <       0.07952222 Ry

     iteration #  7     ecut=    60.00 Ry     beta= 0.20
     Davidson diagonalization with overlap
     ethr =  3.61E-05,  avg # of iterations =  1.9

     negative rho (up, down):  6.494E-02 0.000E+00

     total cpu time spent up to now is     1492.3 secs

     total energy              =   -9109.68481702 Ry
     estimated scf accuracy    <       0.06351920 Ry

     iteration #  8     ecut=    60.00 Ry     beta= 0.20
     Davidson diagonalization with overlap
     ethr =  2.89E-05,  avg # of iterations =  1.0

     negative rho (up, down):  6.490E-02 0.000E+00

     total cpu time spent up to now is     1529.1 secs

     total energy              =   -9109.64972830 Ry
     estimated scf accuracy    <       0.06779606 Ry

     iteration #  9     ecut=    60.00 Ry     beta= 0.20
     Davidson diagonalization with overlap
     ethr =  2.89E-05,  avg # of iterations =  1.0

     negative rho (up, down):  6.485E-02 0.000E+00

     total cpu time spent up to now is     1565.6 secs

     total energy              =   -9109.63753307 Ry
     estimated scf accuracy    <       0.00833755 Ry

     iteration # 10     ecut=    60.00 Ry     beta= 0.20
     Davidson diagonalization with overlap
     ethr =  3.79E-06,  avg # of iterations =  6.6

     negative rho (up, down):  6.481E-02 0.000E+00

     total cpu time spent up to now is     1603.1 secs

     total energy              =   -9109.63347802 Ry
     estimated scf accuracy    <       0.01054601 Ry

     iteration # 11     ecut=    60.00 Ry     beta= 0.20
     Davidson diagonalization with overlap
     ethr =  3.79E-06,  avg # of iterations =  2.0

     negative rho (up, down):  6.480E-02 0.000E+00

     total cpu time spent up to now is     1640.2 secs

     total energy              =   -9109.63090397 Ry
     estimated scf accuracy    <       0.03922418 Ry

     iteration # 12     ecut=    60.00 Ry     beta= 0.20
     Davidson diagonalization with overlap
     ethr =  3.79E-06,  avg # of iterations =  1.1

     negative rho (up, down):  6.478E-02 0.000E+00

     total cpu time spent up to now is     1676.8 secs

     total energy              =   -9109.62727194 Ry
     estimated scf accuracy    <       0.01561278 Ry

     iteration # 13     ecut=    60.00 Ry     beta= 0.20
     Davidson diagonalization with overlap
     ethr =  3.79E-06,  avg # of iterations =  2.0

     negative rho (up, down):  6.476E-02 0.000E+00

     total cpu time spent up to now is     1714.1 secs

     total energy              =   -9109.62583576 Ry
     estimated scf accuracy    <       0.00479383 Ry

     iteration # 14     ecut=    60.00 Ry     beta= 0.20
     Davidson diagonalization with overlap
     ethr =  2.18E-06,  avg # of iterations =  2.0

     negative rho (up, down):  6.475E-02 0.000E+00

     total cpu time spent up to now is     1751.5 secs

     total energy              =   -9109.62595091 Ry
     estimated scf accuracy    <       0.00060019 Ry

     iteration # 15     ecut=    60.00 Ry     beta= 0.20
     Davidson diagonalization with overlap
     ethr =  2.73E-07,  avg # of iterations =  2.3

     negative rho (up, down):  6.475E-02 0.000E+00

     total cpu time spent up to now is     1789.0 secs

     total energy              =   -9109.62597594 Ry
     estimated scf accuracy    <       0.00018067 Ry

     iteration # 16     ecut=    60.00 Ry     beta= 0.20
     Davidson diagonalization with overlap
     ethr =  8.21E-08,  avg # of iterations =  2.3

     negative rho (up, down):  6.474E-02 0.000E+00

     total cpu time spent up to now is     1826.1 secs

     total energy              =   -9109.62597716 Ry
     estimated scf accuracy    <       0.00010509 Ry

     iteration # 17     ecut=    60.00 Ry     beta= 0.20
     Davidson diagonalization with overlap
     ethr =  4.78E-08,  avg # of iterations =  2.0

     negative rho (up, down):  6.474E-02 0.000E+00

     total cpu time spent up to now is     1863.1 secs

     total energy              =   -9109.62598144 Ry
     estimated scf accuracy    <       0.00002056 Ry

     iteration # 18     ecut=    60.00 Ry     beta= 0.20
     Davidson diagonalization with overlap
     ethr =  9.35E-09,  avg # of iterations =  3.3

     negative rho (up, down):  6.474E-02 0.000E+00

     total cpu time spent up to now is     1900.3 secs

     total energy              =   -9109.62597974 Ry
     estimated scf accuracy    <       0.00006218 Ry

     iteration # 19     ecut=    60.00 Ry     beta= 0.20
     Davidson diagonalization with overlap
     ethr =  9.35E-09,  avg # of iterations =  2.0

     negative rho (up, down):  6.474E-02 0.000E+00

     total cpu time spent up to now is     1937.1 secs

     total energy              =   -9109.62598161 Ry
     estimated scf accuracy    <       0.00000810 Ry

     iteration # 20     ecut=    60.00 Ry     beta= 0.20
     Davidson diagonalization with overlap
     ethr =  3.68E-09,  avg # of iterations =  2.0

     negative rho (up, down):  6.473E-02 0.000E+00

     total cpu time spent up to now is     1974.1 secs

     total energy              =   -9109.62598218 Ry
     estimated scf accuracy    <       0.00000396 Ry

     iteration # 21     ecut=    60.00 Ry     beta= 0.20
     Davidson diagonalization with overlap
     ethr =  1.80E-09,  avg # of iterations =  2.0

     negative rho (up, down):  6.473E-02 0.000E+00

     total cpu time spent up to now is     2011.2 secs

     total energy              =   -9109.62598234 Ry
     estimated scf accuracy    <       0.00000244 Ry

     iteration # 22     ecut=    60.00 Ry     beta= 0.20
     Davidson diagonalization with overlap
     ethr =  1.11E-09,  avg # of iterations =  1.0

     negative rho (up, down):  6.473E-02 0.000E+00

     total cpu time spent up to now is     2048.0 secs

     total energy              =   -9109.62598233 Ry
     estimated scf accuracy    <       0.00000068 Ry

     iteration # 23     ecut=    60.00 Ry     beta= 0.20
     Davidson diagonalization with overlap
     ethr =  3.08E-10,  avg # of iterations =  1.9

     negative rho (up, down):  6.473E-02 0.000E+00

     total cpu time spent up to now is     2084.7 secs

     total energy              =   -9109.62598221 Ry
     estimated scf accuracy    <       0.00000104 Ry

     iteration # 24     ecut=    60.00 Ry     beta= 0.20
     Davidson diagonalization with overlap
     ethr =  3.08E-10,  avg # of iterations =  2.0

     negative rho (up, down):  6.473E-02 0.000E+00

     total cpu time spent up to now is     2121.4 secs

     total energy              =   -9109.62598226 Ry
     estimated scf accuracy    <       0.00000013 Ry

     iteration # 25     ecut=    60.00 Ry     beta= 0.20
     Davidson diagonalization with overlap
     ethr =  5.89E-11,  avg # of iterations =  3.2

     negative rho (up, down):  6.473E-02 0.000E+00

     total cpu time spent up to now is     2158.6 secs

     total energy              =   -9109.62598228 Ry
     estimated scf accuracy    <       0.00000004 Ry

     iteration # 26     ecut=    60.00 Ry     beta= 0.20
     Davidson diagonalization with overlap
     ethr =  1.76E-11,  avg # of iterations =  3.3

     negative rho (up, down):  6.473E-02 0.000E+00

     total cpu time spent up to now is     2195.4 secs

     total energy              =   -9109.62598228 Ry
     estimated scf accuracy    <       0.00000005 Ry

     iteration # 27     ecut=    60.00 Ry     beta= 0.20
     Davidson diagonalization with overlap
     ethr =  1.76E-11,  avg # of iterations =  1.0

     negative rho (up, down):  6.473E-02 0.000E+00

     total cpu time spent up to now is     2232.1 secs

     End of self-consistent calculation

          k = 0.0000 0.0000 0.0000 ( 81157 PWs)   bands (ev):

  -103.3039-103.1310-103.1078-103.0815-103.0700-102.6710 -68.3198 -68.3151
   -68.2515 -67.9080 -63.8089 -63.7194 -63.6844 -63.6819 -63.6697 -63.6465
   -63.6392 -63.5780 -63.4964 -63.4709 -63.4355 -63.4317 -63.3848 -63.3797
   -63.3369 -63.1591 -63.1426 -62.9558 -34.8040 -34.8009 -34.7637 -34.7604
   -34.7545 -34.7516 -34.7433 -34.7323 -34.7071 -34.5684 -34.4764 -34.4628
   -13.6082 -12.7681 -12.4631 -12.3333 -11.8205 -11.6825 -11.4769 -11.4687
   -11.2084 -11.0987  -6.6155  -5.9162  -5.7005  -5.5671  -5.4434  -5.2505
    -5.1349  -4.7972  -4.5292  -4.0884  -3.9173  -3.8968  -3.7819  -3.6516
    -3.5640  -3.5373  -3.3880  -3.3794  -3.3720  -3.0953  -2.9564  -2.9002
    -2.6934  -2.6453  -2.5683  -2.5151  -2.4979  -2.3509  -2.2957  -2.1900
    -2.0887  -2.0780  -2.0281  -1.8381  -1.8006  -1.7877  -1.7128  -1.5737
    -1.5171  -1.4821  -1.4411  -1.2998  -1.2114  -1.0913  -1.0391  -0.9887
    -0.9692  -0.8955  -0.8941  -0.7922  -0.7767  -0.4835  -0.4265  -0.3720
    -0.3686  -0.1661  -0.0620   0.1242   0.1766   0.2444   0.3209   0.5311
     0.9703   1.1015   1.2835   1.3868   1.5704   1.8536   2.0557   2.1018
     2.1175   2.3592   2.6154   2.7216   2.7588   3.2125   3.2694   3.2836
     3.5863   3.6507   3.6611   3.7944

          k = 0.0000 0.4558 0.0000 ( 81081 PWs)   bands (ev):

  -103.3039-103.1309-103.1080-103.0812-103.0703-102.6710 -68.3196 -68.3150
   -68.2513 -67.9079 -63.8090 -63.7195 -63.6846 -63.6815 -63.6697 -63.6464
   -63.6392 -63.5775 -63.4955 -63.4729 -63.4381 -63.4297 -63.3848 -63.3775
   -63.3372 -63.1591 -63.1425 -62.9558 -34.8031 -34.8001 -34.7707 -34.7596
   -34.7586 -34.7537 -34.7424 -34.7393 -34.7064 -34.5674 -34.4755 -34.4705
   -13.5328 -12.6968 -12.3726 -12.2471 -11.7529 -11.6379 -11.4188 -11.4086
   -11.1647 -11.0653  -6.5140  -5.8406  -5.6140  -5.5086  -5.3661  -5.1602
    -5.0503  -4.7378  -4.4647  -4.1349  -4.0187  -3.8994  -3.8488  -3.6642
    -3.5814  -3.5418  -3.4717  -3.4200  -3.3215  -3.1325  -2.9961  -2.9776
    -2.8756  -2.6681  -2.6251  -2.5680  -2.5523  -2.5237  -2.4107  -2.3110
    -2.2561  -2.0469  -1.9967  -1.9406  -1.8948  -1.8696  -1.7952  -1.6927
    -1.6233  -1.5052  -1.4725  -1.3930  -1.3830  -1.3374  -1.1841  -1.1343
    -1.0578  -1.0118  -0.9497  -0.7879  -0.6936  -0.5952  -0.4384  -0.4015
    -0.3419  -0.2546  -0.1294   0.0918   0.1520   0.2880   0.5676   0.6247
     0.8543   1.0762   1.1897   1.3811   1.5342   1.7643   1.9061   2.0408
     2.1113   2.2087   2.3429   2.5617   2.7483   3.0029   3.0867   3.1268
     3.3829   3.4699   3.5599   3.9104

          k = 0.0000 0.9117 0.0000 ( 81001 PWs)   bands (ev):

  -103.3039-103.1305-103.1083-103.0804-103.0711-102.6710 -68.3192 -68.3146
   -68.2509 -67.9076 -63.8092 -63.7196 -63.6848 -63.6810 -63.6698 -63.6464
   -63.6393 -63.5766 -63.4931 -63.4775 -63.4447 -63.4253 -63.3852 -63.3720
   -63.3383 -63.1590 -63.1425 -62.9559 -34.8008 -34.7980 -34.7888 -34.7769
   -34.7589 -34.7569 -34.7519 -34.7394 -34.7045 -34.5646 -34.4909 -34.4730
   -13.3284 -12.4873 -12.1144 -11.9999 -11.5710 -11.5165 -11.2612 -11.2371
   -11.0519 -10.9796  -6.2554  -5.6401  -5.3978  -5.3909  -5.1904  -4.9475
    -4.8442  -4.6875  -4.4878  -4.2947  -4.0821  -4.0332  -3.9769  -3.8024
    -3.7367  -3.7077  -3.6733  -3.6305  -3.5589  -3.3744  -3.1504  -3.1120
    -2.9765  -2.9201  -2.8679  -2.7937  -2.6243  -2.5998  -2.5746  -2.5250
    -2.3974  -2.3291  -2.1754  -2.1339  -2.0721  -1.9347  -1.8932  -1.8093
    -1.7427  -1.6647  -1.5894  -1.5538  -1.5049  -1.4361  -1.3648  -1.2555
    -1.2026  -1.1589  -1.0656  -0.8189  -0.7148  -0.6712  -0.6457  -0.6301
    -0.5171  -0.4126  -0.2235  -0.1320  -0.0345   0.2342   0.6211   0.9363
     1.0109   1.1700   1.2472   1.3104   1.3960   1.5909   1.6704   1.7122
     2.0974   2.2305   2.2834   2.4301   2.4992   2.7764   2.8353   3.0673
     3.2464   3.5255   3.9372   4.2282

          k = 0.0000 1.3675 0.0000 ( 80955 PWs)   bands (ev):

  -103.3039-103.1300-103.1088-103.0791-103.0723-102.6710 -68.3187 -68.3141
   -68.2504 -67.9072 -63.8096 -63.7198 -63.6851 -63.6805 -63.6701 -63.6465
   -63.6396 -63.5752 -63.4891 -63.4826 -63.4530 -63.4205 -63.3858 -63.3657
   -63.3401 -63.1591 -63.1425 -62.9558 -34.8117 -34.8001 -34.7972 -34.7949
   -34.7816 -34.7545 -34.7496 -34.7360 -34.7022 -34.5613 -34.5159 -34.4700
   -13.0630 -12.1511 -11.7351 -11.6350 -11.3551 -11.3348 -11.0600 -11.0024
   -10.9264 -10.8815  -6.0538  -5.4862  -5.4328  -5.2701  -5.2493  -5.0622
    -4.8427  -4.7979  -4.7155  -4.5913  -4.4067  -4.2464  -4.1363  -3.9159
    -3.8747  -3.8509  -3.8030  -3.6578  -3.6247  -3.4814  -3.2741  -3.2048
    -3.0758  -3.0486  -3.0108  -2.9186  -2.7631  -2.7311  -2.6683  -2.5137
    -2.4874  -2.4189  -2.2866  -2.2446  -2.1530  -2.1175  -1.9824  -1.9108
    -1.8557  -1.7815  -1.7049  -1.6681  -1.6517  -1.4930  -1.3881  -1.3293
    -1.2731  -1.2210  -1.1632  -1.1194  -0.9691  -0.8972  -0.7860  -0.7235
    -0.6177  -0.5352  -0.4620  -0.3071  -0.2633   0.0697   0.4241   0.8818
     1.0443   1.2509   1.3377   1.4594   1.5140   1.6435   1.8175   1.8609
     2.1074   2.2921   2.3894   2.5950   2.6556   2.7157   2.8659   3.2098
     3.4069   3.4746   3.6683   3.8734

          k = 0.0000 1.8233 0.0000 ( 80831 PWs)   bands (ev):

  -103.3039-103.1296-103.1091-103.0775-103.0739-102.6710 -68.3183 -68.3136
   -68.2499 -67.9069 -63.8099 -63.7200 -63.6853 -63.6801 -63.6703 -63.6466
   -63.6399 -63.5739 -63.4863 -63.4839 -63.4610 -63.4168 -63.3862 -63.3602
   -63.3422 -63.1591 -63.1424 -62.9557 -34.8297 -34.8177 -34.8002 -34.7954
   -34.7928 -34.7523 -34.7477 -34.7333 -34.7004 -34.5585 -34.5360 -34.4675
   -12.8404 -11.7249 -11.3395 -11.2586 -11.2048 -11.1307 -10.9884 -10.9059
   -10.7894 -10.7626  -6.1989  -5.9264  -5.8560  -5.6554  -5.4904  -5.2887
    -4.9844  -4.9337  -4.7651  -4.5848  -4.4896  -4.3395  -4.0593  -4.0139
    -3.8336  -3.7373  -3.5964  -3.5339  -3.4958  -3.4518  -3.3214  -3.2869
    -3.1371  -3.0382  -3.0072  -2.9743  -2.8792  -2.7517  -2.6727  -2.5313
    -2.5235  -2.4818  -2.3308  -2.2789  -2.2042  -2.1459  -2.0330  -1.9272
    -1.8577  -1.8344  -1.7946  -1.7709  -1.7320  -1.6341  -1.4589  -1.4295
    -1.3827  -1.3377  -1.2963  -1.1231  -1.1012  -1.0670  -0.9005  -0.8762
    -0.7674  -0.6587  -0.5530  -0.4886  -0.4600  -0.0874   0.3083   0.7079
     0.8252   1.3651   1.4296   1.4983   1.7550   2.0499   2.1699   2.1789
     2.2364   2.3152   2.4093   2.5466   2.7292   3.0556   3.1130   3.1769
     3.3994   3.4388   3.4752   3.7211

          k = 0.0000-2.2792 0.0000 ( 80706 PWs)   bands (ev):

  -103.3038-103.1295-103.1093-103.0760-103.0755-102.6710 -68.3181 -68.3135
   -68.2498 -67.9068 -63.8099 -63.7200 -63.6854 -63.6798 -63.6704 -63.6466
   -63.6399 -63.5732 -63.4875 -63.4807 -63.4649 -63.4154 -63.3864 -63.3577
   -63.3433 -63.1591 -63.1424 -62.9555 -34.8366 -34.8245 -34.8073 -34.7945
   -34.7919 -34.7514 -34.7469 -34.7323 -34.6997 -34.5574 -34.5437 -34.4666
   -12.7540 -11.3885 -11.1889 -11.1821 -11.0788 -11.0610 -11.0290 -10.9100
   -10.7182 -10.7173  -6.3032  -6.1903  -6.0906  -5.9039  -5.5873  -5.4618
    -5.0639  -5.0568  -4.6792  -4.5872  -4.5336  -4.2094  -4.0423  -3.8008
    -3.7318  -3.7051  -3.6702  -3.6006  -3.5113  -3.2932  -3.2429  -3.1927
    -3.1876  -3.0779  -3.0019  -2.9537  -2.8023  -2.7991  -2.7022  -2.7013
    -2.5244  -2.5057  -2.3072  -2.2224  -2.1718  -2.1262  -2.0317  -1.9509
    -1.9167  -1.9013  -1.8280  -1.7960  -1.6724  -1.6055  -1.5466  -1.5049
    -1.4270  -1.4007  -1.3105  -1.2470  -1.0602  -1.0482  -1.0425  -0.8855
    -0.8654  -0.7285  -0.6444  -0.6442  -0.4366  -0.1202   0.3025   0.6388
     0.7387   1.3981   1.4210   1.5702   1.8018   1.9580   2.0762   2.2573
     2.4098   2.5031   2.6836   2.7216   2.7879   3.0041   3.0777   3.0940
     3.4196   3.4440   3.6026   3.6575

          k =-0.5000 0.0000 0.0000 ( 81086 PWs)   bands (ev):

  -103.3039-103.1310-103.1078-103.0815-103.0700-102.6710 -68.3198 -68.3151
   -68.2515 -67.9080 -63.8089 -63.7194 -63.6843 -63.6818 -63.6696 -63.6463
   -63.6391 -63.5779 -63.4963 -63.4708 -63.4354 -63.4317 -63.3848 -63.3798
   -63.3369 -63.1590 -63.1426 -62.9557 -34.8040 -34.8009 -34.7637 -34.7604
   -34.7545 -34.7516 -34.7433 -34.7323 -34.7071 -34.5684 -34.4764 -34.4628
   -13.6069 -12.7738 -12.5405 -12.1260 -11.9511 -11.7587 -11.4661 -11.4068
   -11.1931 -11.1032  -6.6188  -5.9758  -5.7783  -5.5282  -5.3807  -5.1775
    -5.0670  -4.7396  -4.5539  -4.3596  -3.9607  -3.8357  -3.7818  -3.6301
    -3.5356  -3.4263  -3.3868  -3.3026  -3.2747  -3.0771  -3.0515  -2.9095
    -2.8718  -2.7092  -2.6046  -2.4728  -2.4346  -2.3456  -2.3105  -2.2735
    -2.1686  -2.0278  -1.9472  -1.8741  -1.8546  -1.6884  -1.6747  -1.5905
    -1.5623  -1.4597  -1.3847  -1.3797  -1.2449  -1.1085  -1.0106  -0.9613
    -0.9492  -0.8715  -0.8352  -0.7999  -0.6964  -0.4708  -0.4085  -0.3721
    -0.2761  -0.1514  -0.1297   0.0043   0.1920   0.2111   0.3239   0.5069
     0.9938   1.1773   1.3218   1.3463   1.6813   1.6987   1.9179   2.0768
     2.2050   2.3539   2.6424   2.6801   2.7736   3.0507   3.2426   3.3145
     3.6005   3.6150   3.8005   3.8112

          k =-0.5000 0.4558 0.0000 ( 81074 PWs)   bands (ev):

  -103.3039-103.1309-103.1080-103.0812-103.0703-102.6710 -68.3196 -68.3150
   -68.2513 -67.9079 -63.8090 -63.7194 -63.6846 -63.6815 -63.6697 -63.6464
   -63.6392 -63.5775 -63.4955 -63.4728 -63.4380 -63.4297 -63.3848 -63.3774
   -63.3372 -63.1591 -63.1425 -62.9557 -34.8031 -34.8001 -34.7707 -34.7596
   -34.7586 -34.7538 -34.7424 -34.7393 -34.7064 -34.5674 -34.4755 -34.4705
   -13.5317 -12.6998 -12.4528 -12.0431 -11.8727 -11.7098 -11.4124 -11.3583
   -11.1512 -11.0636  -6.5161  -5.8947  -5.6991  -5.4459  -5.3163  -5.1050
    -4.9825  -4.6701  -4.5053  -4.3195  -4.1216  -3.9276  -3.7584  -3.6860
    -3.5598  -3.4844  -3.3585  -3.3108  -3.2593  -3.1538  -3.0770  -3.0192
    -2.8804  -2.7484  -2.6778  -2.6405  -2.5397  -2.5042  -2.4066  -2.3307
    -2.1686  -2.1024  -2.0442  -1.9421  -1.8730  -1.8519  -1.7322  -1.7072
    -1.6489  -1.6215  -1.4607  -1.4264  -1.2978  -1.2701  -1.1686  -1.1470
    -1.1090  -0.9724  -0.8217  -0.8029  -0.7047  -0.5885  -0.4713  -0.4496
    -0.3184  -0.2532  -0.0636  -0.0008   0.2201   0.3084   0.4873   0.6159
     0.9177   1.0589   1.2415   1.4616   1.6383   1.6848   1.7755   2.0082
     2.0528   2.2474   2.3627   2.5377   2.7596   2.9123   2.9935   3.2270
     3.2641   3.4523   3.6037   3.8743

          k =-0.5000 0.9117 0.0000 ( 81030 PWs)   bands (ev):

  -103.3039-103.1305-103.1083-103.0804-103.0711-102.6710 -68.3192 -68.3146
   -68.2509 -67.9076 -63.8093 -63.7196 -63.6849 -63.6810 -63.6699 -63.6465
   -63.6394 -63.5766 -63.4931 -63.4775 -63.4447 -63.4252 -63.3852 -63.3720
   -63.3383 -63.1591 -63.1425 -62.9558 -34.8008 -34.7980 -34.7888 -34.7769
   -34.7589 -34.7569 -34.7519 -34.7394 -34.7045 -34.5646 -34.4909 -34.4730
   -13.3277 -12.4857 -12.1970 -11.8106 -11.6550 -11.5747 -11.2687 -11.2267
   -11.0371 -10.9629  -6.2507  -5.6743  -5.5034  -5.2693  -5.1668  -4.9846
    -4.7807  -4.6731  -4.4476  -4.3262  -4.2404  -4.0501  -4.0037  -3.8684
    -3.7640  -3.6860  -3.5876  -3.4363  -3.3955  -3.3171  -3.2707  -3.0842
    -3.0556  -2.9663  -2.9178  -2.7844  -2.7199  -2.5628  -2.5352  -2.4424
    -2.3887  -2.3724  -2.2862  -2.1025  -2.0472  -1.9395  -1.9112  -1.8594
    -1.7876  -1.7737  -1.5796  -1.4894  -1.4553  -1.3747  -1.2938  -1.2536
    -1.1693  -1.1258  -1.0424  -0.9898  -0.8125  -0.7174  -0.6558  -0.6023
    -0.5659  -0.3231  -0.2016  -0.0991   0.0781   0.3192   0.5634   0.8962
     1.0294   1.1412   1.2125   1.3895   1.4785   1.5821   1.7027   1.8369
     1.8738   2.0832   2.2604   2.4648   2.5692   2.8539   2.9322   2.9729
     3.0479   3.5059   3.9661   4.1627

          k =-0.5000 1.3675 0.0000 ( 80956 PWs)   bands (ev):

  -103.3039-103.1300-103.1088-103.0791-103.0723-102.6710 -68.3187 -68.3141
   -68.2503 -67.9072 -63.8096 -63.7198 -63.6852 -63.6805 -63.6701 -63.6465
   -63.6397 -63.5753 -63.4891 -63.4826 -63.4530 -63.4204 -63.3857 -63.3657
   -63.3401 -63.1591 -63.1425 -62.9559 -34.8117 -34.8001 -34.7972 -34.7949
   -34.7816 -34.7545 -34.7496 -34.7360 -34.7022 -34.5613 -34.5159 -34.4700
   -13.0628 -12.1473 -11.8090 -11.4863 -11.3904 -11.3580 -11.0852 -11.0622
   -10.8892 -10.8540  -6.0304  -5.4990  -5.4411  -5.2468  -5.2101  -5.1075
    -4.9780  -4.8375  -4.6786  -4.5755  -4.3162  -4.1730  -4.1339  -4.0512
    -3.9458  -3.8196  -3.7137  -3.5934  -3.5492  -3.4327  -3.3574  -3.2626
    -3.1370  -3.0155  -2.9093  -2.8764  -2.8028  -2.7226  -2.6360  -2.5590
    -2.4856  -2.4584  -2.3054  -2.2884  -2.1584  -2.1152  -1.9702  -1.9513
    -1.8683  -1.8453  -1.7442  -1.6483  -1.6276  -1.3853  -1.3820  -1.3394
    -1.2987  -1.2356  -1.1445  -1.1089  -1.0093  -0.8914  -0.7821  -0.7254
    -0.6784  -0.4684  -0.3962  -0.3667  -0.2796   0.1025   0.4114   0.8586
     1.0177   1.3620   1.4628   1.5345   1.5656   1.6637   1.6682   1.9110
     2.0167   2.1295   2.3857   2.5110   2.7316   2.8400   3.0260   3.1272
     3.2991   3.3137   3.7235   4.0566

          k =-0.5000 1.8233 0.0000 ( 80846 PWs)   bands (ev):

  -103.3039-103.1296-103.1091-103.0775-103.0739-102.6710 -68.3183 -68.3136
   -68.2499 -67.9069 -63.8099 -63.7200 -63.6854 -63.6801 -63.6704 -63.6466
   -63.6399 -63.5739 -63.4863 -63.4839 -63.4610 -63.4168 -63.3863 -63.3602
   -63.3422 -63.1591 -63.1425 -62.9557 -34.8297 -34.8177 -34.8002 -34.7954
   -34.7928 -34.7523 -34.7477 -34.7333 -34.7004 -34.5585 -34.5360 -34.4675
   -12.8404 -11.7217 -11.3842 -11.2255 -11.1772 -11.1136 -11.0210 -10.9202
   -10.7799 -10.7618  -6.2035  -5.9599  -5.8569  -5.5634  -5.4871  -5.1732
    -5.0883  -5.0749  -4.7734  -4.5342  -4.4168  -4.4007  -4.1108  -3.9972
    -3.8401  -3.7572  -3.6079  -3.5568  -3.4666  -3.3870  -3.3044  -3.1557
    -3.1404  -3.0837  -3.0299  -2.9846  -2.7947  -2.7607  -2.6948  -2.6217
    -2.5250  -2.4215  -2.3782  -2.2896  -2.1745  -2.1028  -2.0309  -1.9716
    -1.9198  -1.8415  -1.8177  -1.7721  -1.7528  -1.5540  -1.4776  -1.4684
    -1.3766  -1.2954  -1.2198  -1.1952  -1.0987  -1.0415  -0.9498  -0.8295
    -0.7712  -0.7007  -0.6172  -0.5223  -0.3994  -0.0846   0.3063   0.7226
     0.8205   1.3704   1.5222   1.6998   1.7965   1.9678   2.0884   2.1522
     2.2029   2.2715   2.3977   2.5807   2.7111   2.9388   3.0106   3.2404
     3.3641   3.4549   3.6160   3.7516

          k =-0.5000-2.2792 0.0000 ( 80704 PWs)   bands (ev):

  -103.3038-103.1295-103.1093-103.0760-103.0755-102.6710 -68.3181 -68.3135
   -68.2498 -67.9068 -63.8100 -63.7200 -63.6854 -63.6797 -63.6703 -63.6466
   -63.6399 -63.5731 -63.4874 -63.4806 -63.4648 -63.4155 -63.3865 -63.3579
   -63.3434 -63.1591 -63.1425 -62.9554 -34.8366 -34.8245 -34.8073 -34.7945
   -34.7919 -34.7514 -34.7469 -34.7323 -34.6997 -34.5574 -34.5437 -34.4666
   -12.7540 -11.3882 -11.1880 -11.1821 -11.0785 -11.0620 -11.0306 -10.9116
   -10.7163 -10.7163  -6.3528  -6.2124  -6.0910  -5.7829  -5.6188  -5.2961
    -5.2035  -5.0770  -4.7339  -4.6144  -4.5323  -4.2226  -4.0229  -3.8465
    -3.7834  -3.6424  -3.6255  -3.5153  -3.4837  -3.3117  -3.3072  -3.2244
    -3.1660  -3.1387  -3.0136  -2.9184  -2.8707  -2.7689  -2.6529  -2.5884
    -2.4443  -2.4330  -2.4164  -2.2593  -2.1655  -2.1451  -2.0007  -1.9569
    -1.9395  -1.8804  -1.8483  -1.8254  -1.7154  -1.6279  -1.5541  -1.4690
    -1.4547  -1.3580  -1.2700  -1.1975  -1.1793  -1.0676  -1.0366  -0.8541
    -0.8324  -0.7921  -0.7002  -0.6308  -0.3947  -0.1300   0.3030   0.6809
     0.7240   1.4060   1.5040   1.5949   1.8321   1.8938   2.1928   2.2632
     2.4594   2.4606   2.5096   2.6872   2.6986   2.9147   3.1251   3.1873
     3.2426   3.3427   3.7032   3.7697

     the Fermi energy is     0.3041 ev

!    total energy              =   -9109.62598228 Ry
     total all-electron energy =     -9109.625982 Ry
     estimated scf accuracy    <          6.3E-09 Ry
     smearing contrib. (-TS)   =      -0.00068009 Ry
     internal energy E=F+TS    =   -9109.62530218 Ry

     The total energy is F=E-TS. E is the sum of the following terms:
     one-electron contribution =  -17160.32202874 Ry
     hartree contribution      =    8440.88404688 Ry
     xc contribution           =    -365.63867329 Ry
     ewald contribution        =    6243.21213729 Ry
     one-center paw contrib.   =   -6267.76078433 Ry

     convergence has been achieved in  27 iterations

     negative rho (up, down):  6.473E-02 0.000E+00

     Forces acting on atoms (cartesian axes, Ry/au):

     atom    1 type  1   force =    -0.08945457    0.00000000    0.02108848
     atom    2 type  1   force =     0.00447149    0.00000000   -0.00386650
     atom    3 type  1   force =     0.01905078    0.00000000   -0.01217717
     atom    4 type  1   force =    -0.01160457    0.00000000   -0.00451332
     atom    5 type  2   force =    -0.01795091    0.00000000   -0.01531856
     atom    6 type  2   force =     0.01391288    0.00000000   -0.00236145
     atom    7 type  2   force =    -0.00144520    0.00000000   -0.00305452
     atom    8 type  2   force =    -0.05447150    0.00000000    0.02024393
     atom    9 type  2   force =    -0.00043859    0.00000000    0.00110208
     atom   10 type  2   force =     0.14334856    0.00000000   -0.08931659
     atom   11 type  3   force =    -0.06478312    0.00000000   -0.00103947
     atom   12 type  3   force =    -0.00092221    0.00000000    0.00217555
     atom   13 type  3   force =    -0.00352272    0.00000000   -0.00018605
     atom   14 type  3   force =     0.11555815    0.00000000    0.00795890
     atom   15 type  3   force =     0.00931706    0.00000000    0.00477063
     atom   16 type  3   force =    -0.00587477    0.00000000    0.00547693
     atom   17 type  3   force =     0.00058786    0.00000000    0.00045088
     atom   18 type  3   force =    -0.15474255    0.00000000    0.12548485
     atom   19 type  3   force =     0.09844611    0.00000000   -0.05679874
     atom   20 type  3   force =     0.00051780    0.00000000   -0.00011987

     Total force =     0.335019     Total SCF correction =     0.000412


     Computing stress (Cartesian axis) and pressure


     negative rho (up, down):  6.473E-02 0.000E+00
          total   stress  (Ry/bohr**3)                   (kbar)     P=       15.87
   0.00021242   0.00000000  -0.00003592           31.25        0.00       -5.28
   0.00000000   0.00007548   0.00000000            0.00       11.10        0.00
  -0.00003592   0.00000000   0.00003579           -5.28        0.00        5.26

     Energy error            =      6.0E-01 Ry
     Gradient error          =      1.5E-01 Ry/Bohr

     number of scf cycles    =   2
     number of bfgs steps    =   1

     energy             old  =   -9109.0267478877 Ry
     energy             new  =   -9109.6259822760 Ry

     CASE: energy            _new < energy            _old

     new trust radius        =       0.2027865347 bohr
     new conv_thr            =       0.0000000100 Ry


ATOMIC_POSITIONS (angstrom)
Ta              15.1656742921        0.9149235643       12.6119096922
Ta               6.5759955310        2.7447696811       12.5893297098
Ta               2.2845128487        0.9149235643       12.4397951248
Ta              11.0793324032        2.7447696811       12.5879001661
Ni              12.8492969388        0.9149235643       11.7499798885
Ni               4.0547416472        2.7447696811       13.2702867463
Ni               4.7918907488        0.9149235643       11.7589067902
Ni              13.5696414684        2.7447696811       13.2889698108
Ni               8.8272315039        0.9149235643       12.3691451905
Ni               0.1871838821        2.7447696811       12.5333620059
Te              14.1502814129        2.7447696811       10.5290186449
Te               5.3909660428        0.9149235643       14.5022842980
Te              10.5933775859        0.9149235643       10.5192287883
Te               1.8926894895        2.7447696811       14.5259049480
Te               3.4485760875        2.7447696811       10.5382032563
Te              12.2614666159        0.9149235643       14.5052406151
Te               7.0621051673        0.9149235643       10.5194766214
Te              15.6977523158        2.7447696811       14.6973670440
Te               0.2178061787        0.9149235643       10.6236446582
Te               8.8280402026        2.7447696811       14.1982970005



     Writing config-only to output data dir /ddn/data/physics/eamoujaes/2D-Ta2Ni3Te5/ELASTIC/OUT/ta2ni3te5.save/ :
     XML data file
     NEW-OLD atomic charge density approx. for the potential

     negative rho (up, down):  6.465E-02 0.000E+00

     total cpu time spent up to now is     2326.1 secs

     Self-consistent Calculation

     iteration #  1     ecut=    60.00 Ry     beta= 0.20
     Davidson diagonalization with overlap
     ethr =  1.00E-06,  avg # of iterations = 14.2

     negative rho (up, down):  6.458E-02 0.000E+00

     total cpu time spent up to now is     2368.7 secs

     total energy              =   -9109.26338707 Ry
     estimated scf accuracy    <       1.24387967 Ry

     iteration #  2     ecut=    60.00 Ry     beta= 0.20
     Davidson diagonalization with overlap
     ethr =  5.65E-04,  avg # of iterations =  3.0

     negative rho (up, down):  6.463E-02 0.000E+00

     total cpu time spent up to now is     2406.1 secs

     total energy              =   -9108.27754396 Ry
     estimated scf accuracy    <      43.32164642 Ry

     iteration #  3     ecut=    60.00 Ry     beta= 0.20
     Davidson diagonalization with overlap
     ethr =  5.65E-04,  avg # of iterations =  2.6

     negative rho (up, down):  6.466E-02 0.000E+00

     total cpu time spent up to now is     2443.6 secs

     total energy              =   -9109.71003925 Ry
     estimated scf accuracy    <       0.71319610 Ry

     iteration #  4     ecut=    60.00 Ry     beta= 0.20
     Davidson diagonalization with overlap
     ethr =  3.24E-04,  avg # of iterations =  1.3

     negative rho (up, down):  6.468E-02 0.000E+00

     total cpu time spent up to now is     2480.2 secs

     total energy              =   -9109.72804698 Ry
     estimated scf accuracy    <       0.09277358 Ry

     iteration #  5     ecut=    60.00 Ry     beta= 0.20
     Davidson diagonalization with overlap
     ethr =  4.22E-05,  avg # of iterations =  2.0

     negative rho (up, down):  6.469E-02 0.000E+00

     total cpu time spent up to now is     2517.1 secs

     total energy              =   -9109.72336338 Ry
     estimated scf accuracy    <       0.02017471 Ry

     iteration #  6     ecut=    60.00 Ry     beta= 0.20
     Davidson diagonalization with overlap
     ethr =  9.17E-06,  avg # of iterations =  2.0

     negative rho (up, down):  6.470E-02 0.000E+00

     total cpu time spent up to now is     2554.2 secs

     total energy              =   -9109.72238263 Ry
     estimated scf accuracy    <       0.00809066 Ry

     iteration #  7     ecut=    60.00 Ry     beta= 0.20
     Davidson diagonalization with overlap
     ethr =  3.68E-06,  avg # of iterations =  5.6

     negative rho (up, down):  6.470E-02 0.000E+00

     total cpu time spent up to now is     2592.2 secs

     total energy              =   -9109.71859166 Ry
     estimated scf accuracy    <       0.01216599 Ry

     iteration #  8     ecut=    60.00 Ry     beta= 0.20
     Davidson diagonalization with overlap
     ethr =  3.68E-06,  avg # of iterations =  2.3

     negative rho (up, down):  6.471E-02 0.000E+00

     total cpu time spent up to now is     2629.2 secs

     total energy              =   -9109.71279137 Ry
     estimated scf accuracy    <       0.01469540 Ry

     iteration #  9     ecut=    60.00 Ry     beta= 0.20
     Davidson diagonalization with overlap
     ethr =  3.68E-06,  avg # of iterations =  2.0

     negative rho (up, down):  6.471E-02 0.000E+00

     total cpu time spent up to now is     2666.3 secs

     total energy              =   -9109.71072376 Ry
     estimated scf accuracy    <       0.01048815 Ry

     iteration # 10     ecut=    60.00 Ry     beta= 0.20
     Davidson diagonalization with overlap
     ethr =  3.68E-06,  avg # of iterations =  1.0

     negative rho (up, down):  6.471E-02 0.000E+00

     total cpu time spent up to now is     2703.0 secs

     total energy              =   -9109.70891254 Ry
     estimated scf accuracy    <       0.00989090 Ry

     iteration # 11     ecut=    60.00 Ry     beta= 0.20
     Davidson diagonalization with overlap
     ethr =  3.68E-06,  avg # of iterations =  1.0

     negative rho (up, down):  6.471E-02 0.000E+00

     total cpu time spent up to now is     2739.7 secs

     total energy              =   -9109.70828708 Ry
     estimated scf accuracy    <       0.00859847 Ry

     iteration # 12     ecut=    60.00 Ry     beta= 0.20
     Davidson diagonalization with overlap
     ethr =  3.68E-06,  avg # of iterations =  1.1

     negative rho (up, down):  6.470E-02 0.000E+00

     total cpu time spent up to now is     2776.3 secs

     total energy              =   -9109.70684125 Ry
     estimated scf accuracy    <       0.00335560 Ry

     iteration # 13     ecut=    60.00 Ry     beta= 0.20
     Davidson diagonalization with overlap
     c_bands:  1 eigenvalues not converged
     ethr =  1.53E-06,  avg # of iterations =  3.5

     negative rho (up, down):  6.471E-02 0.000E+00

     total cpu time spent up to now is     2813.5 secs

     total energy              =   -9109.70732868 Ry
     estimated scf accuracy    <       0.00041037 Ry

     iteration # 14     ecut=    60.00 Ry     beta= 0.20
     Davidson diagonalization with overlap
     ethr =  1.87E-07,  avg # of iterations =  2.3

     negative rho (up, down):  6.471E-02 0.000E+00

     total cpu time spent up to now is     2850.7 secs

     total energy              =   -9109.70683990 Ry
     estimated scf accuracy    <       0.00163516 Ry

     iteration # 15     ecut=    60.00 Ry     beta= 0.20
     Davidson diagonalization with overlap
     ethr =  1.87E-07,  avg # of iterations =  2.5

     negative rho (up, down):  6.471E-02 0.000E+00

     total cpu time spent up to now is     2887.9 secs

     total energy              =   -9109.70696692 Ry
     estimated scf accuracy    <       0.00002697 Ry

     iteration # 16     ecut=    60.00 Ry     beta= 0.20
     Davidson diagonalization with overlap
     ethr =  1.23E-08,  avg # of iterations =  3.3

     negative rho (up, down):  6.471E-02 0.000E+00

     total cpu time spent up to now is     2924.9 secs

     total energy              =   -9109.70696543 Ry
     estimated scf accuracy    <       0.00002594 Ry

     iteration # 17     ecut=    60.00 Ry     beta= 0.20
     Davidson diagonalization with overlap
     ethr =  1.18E-08,  avg # of iterations =  2.0

     negative rho (up, down):  6.471E-02 0.000E+00

     total cpu time spent up to now is     2961.7 secs

     total energy              =   -9109.70696615 Ry
     estimated scf accuracy    <       0.00001081 Ry

     iteration # 18     ecut=    60.00 Ry     beta= 0.20
     Davidson diagonalization with overlap
     ethr =  4.91E-09,  avg # of iterations =  1.7

     negative rho (up, down):  6.471E-02 0.000E+00

     total cpu time spent up to now is     2998.6 secs

     total energy              =   -9109.70696638 Ry
     estimated scf accuracy    <       0.00001733 Ry

     iteration # 19     ecut=    60.00 Ry     beta= 0.20
     Davidson diagonalization with overlap
     ethr =  4.91E-09,  avg # of iterations =  1.1

     negative rho (up, down):  6.471E-02 0.000E+00

     total cpu time spent up to now is     3035.5 secs

     total energy              =   -9109.70696721 Ry
     estimated scf accuracy    <       0.00000315 Ry

     iteration # 20     ecut=    60.00 Ry     beta= 0.20
     Davidson diagonalization with overlap
     ethr =  1.43E-09,  avg # of iterations =  1.0

     negative rho (up, down):  6.471E-02 0.000E+00

     total cpu time spent up to now is     3072.3 secs

     total energy              =   -9109.70696721 Ry
     estimated scf accuracy    <       0.00000105 Ry

     iteration # 21     ecut=    60.00 Ry     beta= 0.20
     Davidson diagonalization with overlap
     ethr =  4.76E-10,  avg # of iterations =  2.0

     negative rho (up, down):  6.471E-02 0.000E+00

     total cpu time spent up to now is     3109.5 secs

     total energy              =   -9109.70696728 Ry
     estimated scf accuracy    <       0.00000050 Ry

     iteration # 22     ecut=    60.00 Ry     beta= 0.20
     Davidson diagonalization with overlap
     ethr =  2.29E-10,  avg # of iterations =  1.0

     negative rho (up, down):  6.471E-02 0.000E+00

     total cpu time spent up to now is     3146.6 secs

     total energy              =   -9109.70696730 Ry
     estimated scf accuracy    <       0.00000017 Ry

     iteration # 23     ecut=    60.00 Ry     beta= 0.20
     Davidson diagonalization with overlap
     ethr =  7.80E-11,  avg # of iterations =  1.3

     negative rho (up, down):  6.471E-02 0.000E+00

     total cpu time spent up to now is     3183.4 secs

     total energy              =   -9109.70696731 Ry
     estimated scf accuracy    <       0.00000006 Ry

     iteration # 24     ecut=    60.00 Ry     beta= 0.20
     Davidson diagonalization with overlap
     ethr =  2.90E-11,  avg # of iterations =  2.0

     negative rho (up, down):  6.471E-02 0.000E+00

     total cpu time spent up to now is     3220.9 secs

     total energy              =   -9109.70696730 Ry
     estimated scf accuracy    <       0.00000017 Ry

     iteration # 25     ecut=    60.00 Ry     beta= 0.20
[...]
     2.2024   2.2353   2.2863   2.3924   2.4588   2.7015   2.7601   2.9643
     3.0674   3.1920   3.9782   4.1977

          k = 0.0000 1.3675 0.0000 ( 80955 PWs)   bands (ev):

  -103.2215-103.2204-103.2016-103.1990-102.8097-102.8097 -68.2831 -68.2817
   -68.2808 -68.2795 -63.7876 -63.7870 -63.7696 -63.7667 -63.6132 -63.6113
   -63.5793 -63.5771 -63.5155 -63.5138 -63.4906 -63.4881 -63.2911 -63.2902
   -63.2644 -63.2641 -63.1210 -63.1201 -34.8104 -34.8094 -34.8076 -34.8063
   -34.7755 -34.7742 -34.7733 -34.7719 -34.7304 -34.7267 -34.7222 -34.7185
   -12.0841 -11.7891 -11.7200 -11.6020 -11.4526 -11.3694 -11.0703 -11.0168
   -10.9933 -10.9115  -5.6949  -5.3290  -5.2922  -5.2461  -4.9719  -4.8712
    -4.8609  -4.7303  -4.5593  -4.4471  -4.3180  -4.2195  -4.1405  -3.8930
    -3.8342  -3.8193  -3.8171  -3.6112  -3.5823  -3.4648  -3.2750  -3.2013
    -3.1429  -3.0860  -2.9893  -2.8542  -2.8050  -2.7108  -2.6022  -2.4867
    -2.4165  -2.3646  -2.2357  -2.2309  -2.0865  -2.0009  -1.9140  -1.8970
    -1.8422  -1.8239  -1.8179  -1.7489  -1.5518  -1.5398  -1.5039  -1.3995
    -1.3576  -1.3094  -1.1899  -1.0901  -0.9522  -0.9071  -0.8211  -0.6725
    -0.6275  -0.5831  -0.5745  -0.3919  -0.3764  -0.2902   0.6480   0.7353
     1.1970   1.2300   1.2727   1.3576   1.5991   1.6096   1.7413   1.7931
     2.1390   2.2619   2.3616   2.5537   2.5841   2.7384   2.8193   3.1007
     3.1265   3.3738   3.7146   3.8531

          k = 0.0000 1.8233 0.0000 ( 80831 PWs)   bands (ev):

  -103.2211-103.2200-103.2020-103.1993-102.8097-102.8097 -68.2827 -68.2813
   -68.2803 -68.2791 -63.7878 -63.7872 -63.7698 -63.7669 -63.6085 -63.6067
   -63.5873 -63.5851 -63.5102 -63.5087 -63.4919 -63.4892 -63.2912 -63.2902
   -63.2643 -63.2640 -63.1209 -63.1199 -34.8080 -34.8071 -34.8051 -34.8040
   -34.7940 -34.7927 -34.7915 -34.7901 -34.7273 -34.7252 -34.7198 -34.7177
   -11.6341 -11.5352 -11.3156 -11.3064 -11.2767 -11.1598 -10.9502 -10.9484
   -10.8253 -10.8031  -5.9148  -5.8287  -5.7835  -5.7159  -5.0775  -5.0676
    -4.9766  -4.8141  -4.7103  -4.4835  -4.3072  -4.1837  -4.1348  -3.9075
    -3.8866  -3.6144  -3.5744  -3.4357  -3.4244  -3.4112  -3.3143  -3.2876
    -3.2115  -3.1541  -3.1071  -3.0213  -2.8045  -2.6654  -2.6637  -2.5223
    -2.4942  -2.3952  -2.3391  -2.3100  -2.0988  -2.0103  -1.9847  -1.9284
    -1.9015  -1.8936  -1.8216  -1.7933  -1.7060  -1.6891  -1.6278  -1.5070
    -1.3345  -1.3106  -1.3087  -1.2355  -1.0719  -1.0348  -0.9343  -0.8502
    -0.8228  -0.7392  -0.7357  -0.5101  -0.5098  -0.5034   0.5123   0.5636
     1.1022   1.2328   1.3926   1.4807   1.7073   1.9854   2.1193   2.1376
     2.2534   2.2684   2.4782   2.4896   2.7091   2.9565   3.0818   3.2088
     3.2346   3.3807   3.5086   3.6542

          k = 0.0000-2.2792 0.0000 ( 80706 PWs)   bands (ev):

  -103.2209-103.2199-103.2022-103.1995-102.8097-102.8097 -68.2825 -68.2812
   -68.2801 -68.2789 -63.7878 -63.7872 -63.7699 -63.7669 -63.6055 -63.6038
   -63.5912 -63.5889 -63.5081 -63.5066 -63.4926 -63.4898 -63.2911 -63.2902
   -63.2642 -63.2640 -63.1207 -63.1197 -34.8070 -34.8062 -34.8041 -34.8030
   -34.8010 -34.7998 -34.7985 -34.7971 -34.7259 -34.7248 -34.7186 -34.7176
   -11.4291 -11.4263 -11.1174 -11.1170 -11.0825 -11.0808 -11.0104 -11.0094
   -10.7707 -10.7661  -6.0464  -6.0458  -6.0169  -6.0149  -5.2685  -5.2667
    -4.9739  -4.9737  -4.6629  -4.6600  -4.0943  -4.0924  -3.8122  -3.8122
    -3.7692  -3.7681  -3.4689  -3.4686  -3.3510  -3.3503  -3.3383  -3.3376
    -3.1682  -3.1667  -2.9937  -2.9929  -2.8195  -2.8184  -2.6936  -2.6923
    -2.4125  -2.4122  -2.2549  -2.2528  -2.1114  -2.1101  -1.9585  -1.9575
    -1.9572  -1.9560  -1.7718  -1.7714  -1.7705  -1.7699  -1.5915  -1.5914
    -1.3178  -1.3154  -1.2469  -1.2451  -1.0651  -1.0642  -1.0444  -1.0418
    -0.9849  -0.9827  -0.6956  -0.6935  -0.4874  -0.4872   0.5108   0.5122
     1.1186   1.1195   1.5528   1.5538   1.6865   1.6867   2.2143   2.2145
     2.4740   2.4747   2.6718   2.6734   2.8304   2.8311   3.1591   3.1599
     3.2901   3.2905   3.5609   3.5623

          k =-0.5000 0.0000 0.0000 ( 81086 PWs)   bands (ev):

  -103.2226-103.2214-103.2006-103.1980-102.8097-102.8097 -68.2843 -68.2828
   -68.2819 -68.2805 -63.7873 -63.7868 -63.7692 -63.7662 -63.6195 -63.6176
   -63.5581 -63.5557 -63.5328 -63.5312 -63.4886 -63.4862 -63.2910 -63.2901
   -63.2644 -63.2642 -63.1209 -63.1200 -34.8168 -34.8158 -34.8139 -34.8126
   -34.7361 -34.7348 -34.7269 -34.7255 -34.7249 -34.7244 -34.7236 -34.7231
   -12.7577 -12.7547 -12.0319 -12.0311 -11.9590 -11.9554 -11.4933 -11.4911
   -11.1989 -11.1966  -6.0330  -6.0309  -5.5903  -5.5890  -5.2301  -5.2288
    -4.8472  -4.8450  -4.4719  -4.4712  -3.7610  -3.7575  -3.6377  -3.6347
    -3.5460  -3.5421  -3.3157  -3.3135  -3.1407  -3.1368  -2.8695  -2.8658
    -2.7242  -2.7220  -2.4567  -2.4562  -2.3939  -2.3917  -2.2064  -2.2041
    -2.0477  -2.0472  -1.8864  -1.8849  -1.8704  -1.8684  -1.6647  -1.6636
    -1.4770  -1.4740  -1.2927  -1.2912  -1.1806  -1.1761  -0.9617  -0.9578
    -0.9096  -0.9085  -0.8797  -0.8787  -0.7019  -0.7008  -0.4126  -0.4122
    -0.3327  -0.3298  -0.0135  -0.0123   0.0499   0.0510   0.3492   0.3516
     1.2881   1.2909   1.2951   1.2981   1.6359   1.6415   1.8498   1.8531
     2.3329   2.3353   2.5601   2.5626   2.7530   2.7550   3.4670   3.4680
     3.4680   3.4703   3.7983   3.8616

          k =-0.5000 0.4558 0.0000 ( 81074 PWs)   bands (ev):

  -103.2224-103.2213-103.2007-103.1981-102.8097-102.8097 -68.2841 -68.2826
   -68.2817 -68.2803 -63.7874 -63.7869 -63.7693 -63.7664 -63.6188 -63.6169
   -63.5620 -63.5597 -63.5292 -63.5276 -63.4888 -63.4863 -63.2911 -63.2902
   -63.2643 -63.2641 -63.1209 -63.1200 -34.8159 -34.8149 -34.8130 -34.8117
   -34.7353 -34.7345 -34.7335 -34.7325 -34.7319 -34.7307 -34.7237 -34.7225
   -12.6638 -12.6608 -11.9556 -11.9550 -11.9038 -11.9003 -11.4424 -11.4401
   -11.1557 -11.1534  -5.9390  -5.9370  -5.5015  -5.5001  -5.1495  -5.1482
    -4.7870  -4.7851  -4.4185  -4.4180  -3.8563  -3.8523  -3.7150  -3.7141
    -3.5172  -3.5153  -3.2949  -3.2930  -3.2297  -3.2276  -2.8517  -2.8494
    -2.8153  -2.8129  -2.7149  -2.7124  -2.4003  -2.3980  -2.2298  -2.2291
    -2.1012  -2.1004  -1.9762  -1.9757  -1.8622  -1.8603  -1.7356  -1.7349
    -1.6032  -1.6002  -1.4468  -1.4451  -1.3088  -1.3065  -1.2201  -1.2175
    -0.9900  -0.9884  -0.9207  -0.9202  -0.7118  -0.7114  -0.4679  -0.4664
    -0.2818  -0.2810  -0.2258  -0.2249   0.1958   0.1986   0.5164   0.5181
     1.0049   1.0058   1.4429   1.4447   1.5793   1.5845   1.8099   1.8132
     2.1402   2.1438   2.4812   2.4841   2.6820   2.6840   3.0654   3.0664
     3.2118   3.2126   3.7435   3.7443

          k =-0.5000 0.9117 0.0000 ( 81030 PWs)   bands (ev):

  -103.2220-103.2209-103.2011-103.1985-102.8097-102.8097 -68.2837 -68.2822
   -68.2813 -68.2799 -63.7875 -63.7870 -63.7695 -63.7665 -63.6168 -63.6149
   -63.5703 -63.5680 -63.5223 -63.5206 -63.4895 -63.4870 -63.2911 -63.2902
   -63.2643 -63.2641 -63.1210 -63.1201 -34.8134 -34.8125 -34.8105 -34.8093
   -34.7526 -34.7513 -34.7506 -34.7493 -34.7326 -34.7314 -34.7223 -34.7211
   -12.3951 -12.3922 -11.7795 -11.7769 -11.7143 -11.7125 -11.3057 -11.3034
   -11.0392 -11.0369  -5.6973  -5.6953  -5.2676  -5.2660  -4.9711  -4.9701
    -4.7315  -4.7307  -4.3100  -4.3096  -4.0816  -4.0788  -3.9320  -3.9310
    -3.5238  -3.5227  -3.4854  -3.4840  -3.4124  -3.4110  -3.0914  -3.0906
    -3.0790  -3.0760  -2.8093  -2.8065  -2.5769  -2.5752  -2.4669  -2.4647
    -2.2415  -2.2400  -2.2014  -2.2001  -1.9795  -1.9784  -1.8749  -1.8738
    -1.7110  -1.7084  -1.6681  -1.6672  -1.4203  -1.4190  -1.3075  -1.3058
    -1.1222  -1.1203  -1.0763  -1.0757  -0.8744  -0.8740  -0.6533  -0.6523
    -0.4449  -0.4427  -0.2010  -0.1995  -0.0238  -0.0204   0.7468   0.7486
     1.0586   1.0594   1.3417   1.3431   1.4885   1.4923   1.7931   1.7952
     1.9241   1.9270   2.3124   2.3147   2.7189   2.7217   2.8353   2.8358
     3.0404   3.0420   4.0701   4.0711

          k =-0.5000 1.3675 0.0000 ( 80956 PWs)   bands (ev):

  -103.2215-103.2204-103.2016-103.1990-102.8097-102.8097 -68.2831 -68.2817
   -68.2808 -68.2795 -63.7876 -63.7871 -63.7697 -63.7667 -63.6132 -63.6114
   -63.5793 -63.5771 -63.5154 -63.5138 -63.4906 -63.4880 -63.2911 -63.2902
   -63.2643 -63.2641 -63.1210 -63.1201 -34.8104 -34.8095 -34.8075 -34.8064
   -34.7755 -34.7742 -34.7733 -34.7719 -34.7295 -34.7283 -34.7205 -34.7194
   -11.9972 -11.9946 -11.5748 -11.5720 -11.4117 -11.4109 -11.1302 -11.1278
   -10.8963 -10.8937  -5.5513  -5.5497  -5.1605  -5.1583  -5.0280  -5.0257
    -4.8589  -4.8565  -4.4203  -4.4185  -4.3251  -4.3238  -3.9880  -3.9855
    -3.8346  -3.8330  -3.6541  -3.6535  -3.4165  -3.4154  -3.3626  -3.3611
    -3.0357  -3.0347  -2.8922  -2.8909  -2.8152  -2.8137  -2.5992  -2.5975
    -2.3815  -2.3812  -2.2317  -2.2292  -2.0608  -2.0594  -1.9529  -1.9505
    -1.8836  -1.8812  -1.7703  -1.7695  -1.4758  -1.4745  -1.3986  -1.3968
    -1.3340  -1.3318  -1.2339  -1.2318  -0.8913  -0.8905  -0.7898  -0.7860
    -0.6118  -0.6095  -0.4462  -0.4450  -0.3188  -0.3176   0.6612   0.6631
     1.2125   1.2137   1.4507   1.4511   1.6283   1.6292   1.8278   1.8297
     2.0302   2.0308   2.3341   2.3363   2.8356   2.8386   2.9319   2.9333
     3.1406   3.1424   3.8802   3.8818

          k =-0.5000 1.8233 0.0000 ( 80846 PWs)   bands (ev):

  -103.2211-103.2200-103.2020-103.1993-102.8097-102.8097 -68.2827 -68.2813
   -68.2803 -68.2791 -63.7878 -63.7872 -63.7698 -63.7669 -63.6085 -63.6067
   -63.5873 -63.5851 -63.5102 -63.5087 -63.4919 -63.4893 -63.2912 -63.2903
   -63.2643 -63.2641 -63.1209 -63.1199 -34.8079 -34.8071 -34.8051 -34.8040
   -34.7940 -34.7927 -34.7915 -34.7901 -34.7269 -34.7258 -34.7192 -34.7181
   -11.5880 -11.5858 -11.3523 -11.3501 -11.1489 -11.1482 -10.9890 -10.9869
   -10.8048 -10.8011  -5.9385  -5.9381  -5.6353  -5.6337  -5.1320  -5.1303
    -4.9217  -4.9176  -4.5961  -4.5929  -4.2530  -4.2511  -4.0423  -4.0387
    -3.7590  -3.7587  -3.5262  -3.5251  -3.3770  -3.3766  -3.2553  -3.2538
    -3.1618  -3.1616  -2.9317  -2.9311  -2.8635  -2.8618  -2.5895  -2.5872
    -2.5186  -2.5179  -2.2104  -2.2076  -2.1146  -2.1137  -1.9865  -1.9845
    -1.9335  -1.9324  -1.8370  -1.8343  -1.6201  -1.6183  -1.5153  -1.5135
    -1.3645  -1.3624  -1.2906  -1.2885  -1.0056  -1.0032  -0.9818  -0.9806
    -0.7682  -0.7653  -0.6832  -0.6816  -0.4408  -0.4391   0.5351   0.5371
     1.1299   1.1311   1.6979   1.6990   1.7487   1.7496   2.1637   2.1638
     2.2089   2.2089   2.4184   2.4200   2.7476   2.7494   3.0651   3.0659
     3.3915   3.3925   3.5955   3.5965

          k =-0.5000-2.2792 0.0000 ( 80704 PWs)   bands (ev):

  -103.2209-103.2199-103.2022-103.1995-102.8097-102.8097 -68.2825 -68.2812
   -68.2801 -68.2789 -63.7877 -63.7872 -63.7698 -63.7669 -63.6054 -63.6037
   -63.5911 -63.5888 -63.5082 -63.5067 -63.4927 -63.4899 -63.2911 -63.2902
   -63.2643 -63.2641 -63.1206 -63.1196 -34.8070 -34.8062 -34.8041 -34.8030
   -34.8010 -34.7998 -34.7985 -34.7971 -34.7259 -34.7248 -34.7186 -34.7176
   -11.4288 -11.4261 -11.1129 -11.1123 -11.0867 -11.0846 -11.0132 -11.0122
   -10.7685 -10.7640  -6.1757  -6.1754  -5.8403  -5.8389  -5.3097  -5.3074
    -4.9335  -4.9330  -4.7338  -4.7304  -4.0373  -4.0339  -3.9829  -3.9819
    -3.5690  -3.5683  -3.5015  -3.5010  -3.4598  -3.4593  -3.2928  -3.2926
    -3.1199  -3.1184  -3.0567  -3.0555  -2.7230  -2.7229  -2.7159  -2.7129
    -2.3588  -2.3587  -2.2616  -2.2595  -2.0935  -2.0933  -2.0668  -2.0667
    -1.9891  -1.9877  -1.7554  -1.7543  -1.6931  -1.6917  -1.5327  -1.5298
    -1.4416  -1.4416  -1.2348  -1.2330  -1.1108  -1.1086  -1.0366  -1.0353
    -0.9671  -0.9641  -0.6953  -0.6927  -0.4803  -0.4798   0.5175   0.5189
     1.1067   1.1076   1.6443   1.6444   1.7152   1.7160   2.2481   2.2482
     2.4258   2.4282   2.5847   2.5848   2.8135   2.8145   3.0776   3.0779
     3.2234   3.2237   3.7810   3.7849

     the Fermi energy is     0.2460 ev

!    total energy              =   -9109.81194121 Ry
     total all-electron energy =     -9109.811941 Ry
     estimated scf accuracy    <          9.7E-11 Ry
     smearing contrib. (-TS)   =      -0.00001790 Ry
     internal energy E=F+TS    =   -9109.81192331 Ry

     The total energy is F=E-TS. E is the sum of the following terms:
     one-electron contribution =  -17064.93496594 Ry
     hartree contribution      =    8393.08909674 Ry
     xc contribution           =    -365.34303383 Ry
     ewald contribution        =    6195.15664372 Ry
     one-center paw contrib.   =   -6267.77966401 Ry

     convergence has been achieved in  17 iterations

     negative rho (up, down):  6.495E-02 0.000E+00

     Forces acting on atoms (cartesian axes, Ry/au):

     atom    1 type  1   force =    -0.00030892    0.00000000   -0.00001860
     atom    2 type  1   force =     0.00026685    0.00000000    0.00000779
     atom    3 type  1   force =     0.00009037    0.00000000    0.00028866
     atom    4 type  1   force =    -0.00015944    0.00000000   -0.00092342
     atom    5 type  2   force =     0.00083745    0.00000000    0.00021093
     atom    6 type  2   force =    -0.00012204    0.00000000   -0.00008360
     atom    7 type  2   force =    -0.00037418    0.00000000    0.00027726
     atom    8 type  2   force =    -0.00031638    0.00000000   -0.00070968
     atom    9 type  2   force =    -0.00025282    0.00000000   -0.00053080
     atom   10 type  2   force =    -0.00007832    0.00000000   -0.00023107
     atom   11 type  3   force =     0.00078696    0.00000000   -0.00019627
     atom   12 type  3   force =     0.00014657    0.00000000    0.00011518
     atom   13 type  3   force =     0.00008653    0.00000000   -0.00025976
     atom   14 type  3   force =    -0.00024276    0.00000000    0.00053086
     atom   15 type  3   force =     0.00000491    0.00000000    0.00049558
     atom   16 type  3   force =    -0.00047504    0.00000000   -0.00006804
     atom   17 type  3   force =    -0.00018175    0.00000000    0.00011539
     atom   18 type  3   force =     0.00074048    0.00000000    0.00068065
     atom   19 type  3   force =     0.00031631    0.00000000    0.00058528
     atom   20 type  3   force =    -0.00076477    0.00000000   -0.00028636

     Total force =     0.002623     Total SCF correction =     0.000050


     Computing stress (Cartesian axis) and pressure


     negative rho (up, down):  6.495E-02 0.000E+00
          total   stress  (Ry/bohr**3)                   (kbar)     P=        7.86
   0.00016947   0.00000000  -0.00000065           24.93        0.00       -0.10
   0.00000000   0.00003191   0.00000000            0.00        4.69        0.00
  -0.00000065   0.00000000  -0.00004104           -0.10        0.00       -6.04

     Energy error            =      1.5E-05 Ry
     Gradient error          =      9.2E-04 Ry/Bohr

     bfgs converged in  24 scf cycles and  23 bfgs steps
     (criteria: energy <  1.0E-04 Ry, force <  1.0E-03 Ry/Bohr)

     End of BFGS Geometry Optimization

     Final energy             =   -9109.8119412127 Ry

     File /ddn/data/physics/eamoujaes/2D-Ta2Ni3Te5/ELASTIC/OUT/ta2ni3te5.bfgs deleted, as requested
Begin final coordinates

ATOMIC_POSITIONS (angstrom)
Ta              15.0292890623        0.9149235643       12.5195220247
Ta               6.6899660650        2.7447696811       12.5152983659
Ta               2.5345368822        0.9149235643       12.4832714463
Ta              10.8762645820        2.7447696811       12.5530223023
Ni              12.6179901812        0.9149235643       11.7704673609
Ni               4.2804299919        2.7447696811       13.2650234973
Ni               4.9427558320        0.9149235643       11.7149292393
Ni              13.2834947729        2.7447696811       13.3202785984
Ni               8.7793537366        0.9149235643       12.4020509860
Ni               0.4373854628        2.7447696811       12.6370788411
Te              13.8985158249        2.7447696811       10.5484269936
Te               5.5630092069        0.9149235643       14.4868613686
Te              10.4495008665        0.9149235643       10.4570058415
Te               2.1113243653        2.7447696811       14.5787633567
Te               3.6476020342        2.7447696811       10.5001957889
Te              11.9914743106        0.9149235643       14.5351638349
Te               7.1297677403        0.9149235643       10.4258191093
Te              15.4677105305        2.7447696811       14.6085621059
Te               0.4265420579        0.9149235643       10.7373567504
Te               8.7716488574        2.7447696811       14.2991531877
End final coordinates



     Writing all to output data dir /ddn/data/physics/eamoujaes/2D-Ta2Ni3Te5/ELASTIC/OUT/ta2ni3te5.save/ :
     XML data file, charge density, pseudopotentials, collected wavefunctions
 
     init_run     :     50.77s CPU     62.57s WALL (       1 calls)
     electrons    :  15445.50s CPU  20860.84s WALL (      24 calls)
     update_pot   :    629.62s CPU    808.94s WALL (      23 calls)
     forces       :     41.36s CPU     51.82s WALL (      24 calls)
     stress       :     72.63s CPU    113.22s WALL (      24 calls)

     Called by init_run:
     wfcinit      :      5.27s CPU      6.83s WALL (       1 calls)
     potinit      :     40.98s CPU     50.01s WALL (       1 calls)
     hinit0       :      2.58s CPU      2.99s WALL (       1 calls)

     Called by electrons:
     c_bands      :    980.66s CPU   1431.91s WALL (     529 calls)
     sum_band     :    437.64s CPU    548.46s WALL (     529 calls)
     v_of_rho     :    184.45s CPU    246.17s WALL (     545 calls)
     newd         :     36.92s CPU     60.11s WALL (     545 calls)
                                       60.10s GPU  (     545 calls)
     PAW_pot      :  14904.30s CPU  19146.88s WALL (     568 calls)
     mix_rho      :     56.35s CPU    108.04s WALL (     529 calls)

     Called by c_bands:
     init_us_2    :     97.45s CPU    121.75s WALL (   13560 calls)
     init_us_2:cp :     81.58s CPU    103.32s WALL (     276 calls)
     init_us_2:gp :     15.52s CPU     18.07s WALL (   13284 calls)
     cegterg      :    554.82s CPU    943.43s WALL (    6348 calls)

     Called by *egterg:
     cdiaghg      :     54.04s CPU     85.74s WALL (   21210 calls)
                                       85.63s GPU  (   21210 calls)
     h_psi        :    388.25s CPU    670.86s WALL (   21594 calls)
                                      669.17s GPU  (   21594 calls)
     s_psi        :      9.70s CPU     13.36s WALL (   21594 calls)
     g_psi        :      0.06s CPU      6.06s WALL (   15234 calls)
                                        5.93s GPU  (   15234 calls)

     Called by h_psi:
     h_psi:calbec :      0.69s CPU     27.28s WALL (   21594 calls)
                                       27.08s GPU  (   21594 calls)
     vloc_psi     :    345.91s CPU    601.58s WALL (   21594 calls)
                                      601.45s GPU  (   21594 calls)
     add_vuspsi   :      7.28s CPU     34.95s WALL (   21594 calls)
                                       34.72s GPU  (   21594 calls)

     General routines
     calbec       :    225.79s CPU    399.32s WALL (   29658 calls)
     fft          :     47.31s CPU     50.06s WALL (    7668 calls)
                                        2.65s GPU  (    7123 calls)
     ffts         :     13.45s CPU     13.57s WALL (    1074 calls)
                                        0.07s GPU  (     529 calls)
     fftw         :      2.34s CPU    530.62s WALL (  324900 calls)
                                      526.50s GPU  (  324900 calls)
     interpolate  :     69.10s CPU     73.22s WALL (     545 calls)
 
     Parallel routines
 
     PWSCF        :      4h46m CPU      6h26m WALL

 
   This run was terminated on:  10: 9: 8  28Jul2024            

=------------------------------------------------------------------------------=
   JOB DONE.
=------------------------------------------------------------------------------=
