
     Program PWSCF v.7.3 starts on 28Jul2024 at 10: 9:20 

     This program is part of the open-source Quantum ESPRESSO suite
     for quantum simulation of materials; please cite
         "P. Giannozzi et al., J. Phys.:Condens. Matter 21 395502 (2009);
         "P. Giannozzi et al., J. Phys.:Condens. Matter 29 465901 (2017);
         "P. Giannozzi et al., J. Chem. Phys. 152 154105 (2020);
          URL http://www.quantum-espresso.org", 
     in publications or presentations arising from this work. More details at
     http://www.quantum-espresso.org/quote

     Parallel version (MPI & OpenMP), running on      32 processor cores
     Number of MPI processes:                 1
     Threads/MPI process:                    32

     MPI processes distributed on     1 nodes
     354259 MiB available memory on the printing compute node when the environment starts
 
     Waiting for input...
     Reading input from standard input
Warning: card &CELL ignored
Warning: card CELL_DYNAMICS='BFGS' ignored
Warning: card PRESS=0.0 ignored
Warning: card CELL_DOFREE='2DXY' ignored
Warning: card / ignored

     Current dimensions of program PWSCF are:
     Max number of different atomic species (ntypx) = 10
     Max number of k-points (npk) =  40000
     Max angular momentum in pseudopotentials (lmaxx) =  4
read_pp_mesh; mismatch in mesh size, discarding the one in header
read_pp_mesh; mismatch in mesh size, discarding the one in header
read_pp_mesh; mismatch in mesh size, discarding the one in header
     Message from routine setup:
     using ibrav=0 with symmetry is DISCOURAGED, use correct ibrav instead
 
     Subspace diagonalization in iterative solution of the eigenvalue problem:
     a serial algorithm will be used

 
     G-vector sticks info
     --------------------
     sticks:   dense  smooth     PW     G-vecs:    dense   smooth      PW
     Sum        8459    4227   1181              1859175   656923   97687
 
     Using Slab Decomposition
 


     bravais-lattice index     =            0
     lattice parameter (alat)  =      32.0023  a.u.
     unit-cell volume          =   10470.8468 (a.u.)^3
     number of atoms/cell      =           20
     number of atomic types    =            3
     number of electrons       =       220.00
     number of Kohn-Sham states=          132
     kinetic-energy cutoff     =      60.0000  Ry
     charge density cutoff     =     480.0000  Ry
     scf convergence threshold =      1.0E-08
     mixing beta               =       0.2000
     number of iterations used =            8  plain     mixing
     energy convergence thresh.=      1.0E-04
     force convergence thresh. =      1.0E-03
     Exchange-correlation= SLA PW PBX PBC
                           (   1   4   3   4   0   0   0)
     nstep                     =         2000


     GPU acceleration is ACTIVE.  1 visible GPUs per MPI rank
     GPU-aware MPI enabled


     celldm(1)=  32.002323  celldm(2)=   0.000000  celldm(3)=   0.000000
     celldm(4)=   0.000000  celldm(5)=   0.000000  celldm(6)=   0.000000

     crystal axes: (cart. coord. in units of alat)
               a(1) = (   1.000000   0.000000   0.000000 )  
               a(2) = (   0.000000   0.216104   0.000000 )  
               a(3) = (   0.000000   0.000000   1.478344 )  

     reciprocal axes: (cart. coord. in units 2 pi/alat)
               b(1) = (  1.000000  0.000000  0.000000 )  
               b(2) = (  0.000000  4.627411  0.000000 )  
               b(3) = (  0.000000  0.000000  0.676433 )  


     PseudoPot. # 1 for Ta read from file:
     /ddn/data/physics/eamoujaes/PSEUDO-CREATED/Ta.upf
     MD5 check sum: d865b2c2c09566b116f2b8decb2c153d
     Pseudo is Projector augmented-wave + core cor, Zval = 13.0
     Generated using ATOMPAW code
     Shape of augmentation charge: SINC**2
     Using radial grid of 2342 points,  6 beta functions with: 
                l(1) =   0
                l(2) =   0
                l(3) =   1
                l(4) =   1
                l(5) =   2
                l(6) =   2
     Q(r) pseudized with 0 coefficients 


     PseudoPot. # 2 for Ni read from file:
     /ddn/data/physics/eamoujaes/PSEUDO-CREATED/Ni.upf
     MD5 check sum: 85a2a5d9d38f4289a1cc30d5adb66a03
     Pseudo is Projector augmented-wave + core cor, Zval = 18.0
     Generated using ATOMPAW code
     Shape of augmentation charge: SINC**2
     Using radial grid of 2342 points,  6 beta functions with: 
                l(1) =   0
                l(2) =   0
                l(3) =   1
                l(4) =   1
                l(5) =   2
                l(6) =   2
     Q(r) pseudized with 0 coefficients 


     PseudoPot. # 3 for Te read from file:
     /ddn/data/physics/eamoujaes/PSEUDO-CREATED/Te.upf
     MD5 check sum: 8d958f193a7511a138982c2e72838810
     Pseudo is Projector augmented-wave + core cor, Zval =  6.0
     Generated using ATOMPAW code
     Shape of augmentation charge: SINC**2
     Using radial grid of 2342 points,  4 beta functions with: 
                l(1) =   0
                l(2) =   0
                l(3) =   1
                l(4) =   1
     Q(r) pseudized with 0 coefficients 


     atomic species   valence    mass     pseudopotential
     Ta               13.00   180.94790     Ta( 1.00)
     Ni               18.00    58.69340     Ni( 1.00)
     Te                6.00   127.60000     Te( 1.00)

      2 Sym. Ops. (no inversion) found ( 1 have fractional translation)



   Cartesian axes

     site n.     atom                  positions (alat units)
         1        Ta     tau(   1) = (   0.9088829   0.0540259   0.7348045  )
         2        Ta     tau(   2) = (   0.3880478   0.1620777   0.7435530  )
         3        Ta     tau(   3) = (   0.1337567   0.0540259   0.7347942  )
         4        Ta     tau(   4) = (   0.6545922   0.1620777   0.7435625  )
         5        Ni     tau(   5) = (   0.7596389   0.0540259   0.6945237  )
         6        Ni     tau(   6) = (   0.2388027   0.1620777   0.7838336  )
         7        Ni     tau(   7) = (   0.2829935   0.0540259   0.6945080  )
         8        Ni     tau(   8) = (   0.8038288   0.1620777   0.7838488  )
         9        Ni     tau(   9) = (   0.5213108   0.0540259   0.7303383  )
        10        Ni     tau(  10) = (   0.0004769   0.1620777   0.7480180  )
        11        Te     tau(  11) = (   0.8392752   0.1620777   0.6221033  )
        12        Te     tau(  12) = (   0.3184384   0.0540259   0.8562538  )
        13        Te     tau(  13) = (   0.6256567   0.0540259   0.6211630  )
        14        Te     tau(  14) = (   0.1048220   0.1620777   0.8571940  )
        15        Te     tau(  15) = (   0.2033486   0.1620777   0.6220901  )
        16        Te     tau(  16) = (   0.7241843   0.0540259   0.8562668  )
        17        Te     tau(  17) = (   0.4169861   0.0540259   0.6211534  )
        18        Te     tau(  18) = (   0.9378208   0.1620777   0.8572042  )
        19        Te     tau(  19) = (   0.0004900   0.0540259   0.6399577  )
        20        Te     tau(  20) = (   0.5213233   0.1620777   0.8383975  )

     number of k points=    12  Gaussian smearing, width (Ry)=  0.0020
                       cart. coord. in units 2pi/alat
        k(    1) = (   0.0000000   0.0000000   0.0000000), wk =   0.1000000
        k(    2) = (   0.0000000   0.4627411   0.0000000), wk =   0.2000000
        k(    3) = (   0.0000000   0.9254822   0.0000000), wk =   0.2000000
        k(    4) = (   0.0000000   1.3882233   0.0000000), wk =   0.2000000
        k(    5) = (   0.0000000   1.8509644   0.0000000), wk =   0.2000000
        k(    6) = (   0.0000000  -2.3137055   0.0000000), wk =   0.1000000
        k(    7) = (  -0.5000000   0.0000000   0.0000000), wk =   0.1000000
        k(    8) = (  -0.5000000   0.4627411   0.0000000), wk =   0.2000000
        k(    9) = (  -0.5000000   0.9254822   0.0000000), wk =   0.2000000
        k(   10) = (  -0.5000000   1.3882233   0.0000000), wk =   0.2000000
        k(   11) = (  -0.5000000   1.8509644   0.0000000), wk =   0.2000000
        k(   12) = (  -0.5000000  -2.3137055   0.0000000), wk =   0.1000000

     Dense  grid:  1859175 G-vectors     FFT dimensions: ( 225,  50, 360)

     Smooth grid:   656923 G-vectors     FFT dimensions: ( 160,  36, 240)

     Estimated max dynamical RAM per process >       9.50 GB

     Initial potential from superposition of free atoms

     starting charge     219.9927, renormalised to     220.0000

     negative rho (up, down):  4.943E-02 0.000E+00
     Starting wfcs are  260 randomized atomic wfcs
     Checking if some PAW data can be deallocated... 

     total cpu time spent up to now is       65.2 secs

     Self-consistent Calculation

     iteration #  1     ecut=    60.00 Ry     beta= 0.20
     Davidson diagonalization with overlap
     ethr =  1.00E-02,  avg # of iterations =  2.9

     negative rho (up, down):  5.008E-02 0.000E+00

     total cpu time spent up to now is      102.4 secs

     total energy              =   -9107.46240066 Ry
     estimated scf accuracy    <       8.25002460 Ry

     iteration #  2     ecut=    60.00 Ry     beta= 0.20
     Davidson diagonalization with overlap
     ethr =  3.75E-03,  avg # of iterations =  2.3

     negative rho (up, down):  5.128E-02 0.000E+00

     total cpu time spent up to now is      139.3 secs

     total energy              =   -9106.80389222 Ry
     estimated scf accuracy    <      25.75632911 Ry

     iteration #  3     ecut=    60.00 Ry     beta= 0.20
     Davidson diagonalization with overlap
     ethr =  3.75E-03,  avg # of iterations =  2.0

     negative rho (up, down):  5.214E-02 0.000E+00

     total cpu time spent up to now is      175.9 secs

     total energy              =   -9108.70756096 Ry
     estimated scf accuracy    <      17.93413972 Ry

     iteration #  4     ecut=    60.00 Ry     beta= 0.20
     Davidson diagonalization with overlap
     ethr =  3.75E-03,  avg # of iterations =  1.0

     negative rho (up, down):  5.325E-02 0.000E+00

     total cpu time spent up to now is      212.5 secs

     total energy              =   -9109.55353848 Ry
     estimated scf accuracy    <       2.41148461 Ry

     iteration #  5     ecut=    60.00 Ry     beta= 0.20
     Davidson diagonalization with overlap
     ethr =  1.10E-03,  avg # of iterations =  1.0

     negative rho (up, down):  5.423E-02 0.000E+00

     total cpu time spent up to now is      249.1 secs

     total energy              =   -9109.56850503 Ry
     estimated scf accuracy    <       1.19361584 Ry

     iteration #  6     ecut=    60.00 Ry     beta= 0.20
     Davidson diagonalization with overlap
     ethr =  5.43E-04,  avg # of iterations =  1.0

     negative rho (up, down):  5.693E-02 0.000E+00

     total cpu time spent up to now is      285.5 secs

     total energy              =   -9109.47326011 Ry
     estimated scf accuracy    <       0.86384390 Ry

     iteration #  7     ecut=    60.00 Ry     beta= 0.20
     Davidson diagonalization with overlap
     ethr =  3.93E-04,  avg # of iterations =  1.6

     negative rho (up, down):  6.032E-02 0.000E+00

     total cpu time spent up to now is      322.4 secs

     total energy              =   -9109.45722220 Ry
     estimated scf accuracy    <       0.54516543 Ry

     iteration #  8     ecut=    60.00 Ry     beta= 0.20
     Davidson diagonalization with overlap
     ethr =  2.48E-04,  avg # of iterations =  2.5

     negative rho (up, down):  6.242E-02 0.000E+00

     total cpu time spent up to now is      359.3 secs

     total energy              =   -9109.49675607 Ry
     estimated scf accuracy    <       0.33992745 Ry

     iteration #  9     ecut=    60.00 Ry     beta= 0.20
     Davidson diagonalization with overlap
     ethr =  1.55E-04,  avg # of iterations =  4.3

     negative rho (up, down):  6.259E-02 0.000E+00

     total cpu time spent up to now is      396.5 secs

     total energy              =   -9109.46171175 Ry
     estimated scf accuracy    <       0.44993715 Ry

     iteration # 10     ecut=    60.00 Ry     beta= 0.20
     Davidson diagonalization with overlap
     ethr =  1.55E-04,  avg # of iterations =  1.1

     negative rho (up, down):  6.320E-02 0.000E+00

     total cpu time spent up to now is      433.0 secs

     total energy              =   -9109.48342200 Ry
     estimated scf accuracy    <       0.02488263 Ry

     iteration # 11     ecut=    60.00 Ry     beta= 0.20
     Davidson diagonalization with overlap
     c_bands:  1 eigenvalues not converged
     c_bands:  1 eigenvalues not converged
     c_bands:  1 eigenvalues not converged
     ethr =  1.13E-05,  avg # of iterations = 14.8

     negative rho (up, down):  6.390E-02 0.000E+00

     total cpu time spent up to now is      471.7 secs

     total energy              =   -9109.48523821 Ry
     estimated scf accuracy    <       0.01046548 Ry

     iteration # 12     ecut=    60.00 Ry     beta= 0.20
     Davidson diagonalization with overlap
     c_bands:  1 eigenvalues not converged
     ethr =  4.76E-06,  avg # of iterations =  4.8

     negative rho (up, down):  6.484E-02 0.000E+00

     total cpu time spent up to now is      509.0 secs

     total energy              =   -9109.48415084 Ry
     estimated scf accuracy    <       0.00940507 Ry

     iteration # 13     ecut=    60.00 Ry     beta= 0.20
     Davidson diagonalization with overlap
     ethr =  4.28E-06,  avg # of iterations =  1.4

     negative rho (up, down):  6.579E-02 0.000E+00

     total cpu time spent up to now is      545.8 secs

     total energy              =   -9109.48493549 Ry
     estimated scf accuracy    <       0.00219500 Ry

     iteration # 14     ecut=    60.00 Ry     beta= 0.20
     Davidson diagonalization with overlap
     ethr =  9.98E-07,  avg # of iterations =  2.6

     negative rho (up, down):  6.600E-02 0.000E+00

     total cpu time spent up to now is      583.1 secs

     total energy              =   -9109.48506964 Ry
     estimated scf accuracy    <       0.00058076 Ry

     iteration # 15     ecut=    60.00 Ry     beta= 0.20
     Davidson diagonalization with overlap
     ethr =  2.64E-07,  avg # of iterations =  1.6

     negative rho (up, down):  6.614E-02 0.000E+00

     total cpu time spent up to now is      619.8 secs

     total energy              =   -9109.48511102 Ry
     estimated scf accuracy    <       0.00020972 Ry

     iteration # 16     ecut=    60.00 Ry     beta= 0.20
     Davidson diagonalization with overlap
     ethr =  9.53E-08,  avg # of iterations =  1.8

     negative rho (up, down):  6.621E-02 0.000E+00

     total cpu time spent up to now is      657.0 secs

     total energy              =   -9109.48512327 Ry
     estimated scf accuracy    <       0.00006703 Ry

     iteration # 17     ecut=    60.00 Ry     beta= 0.20
     Davidson diagonalization with overlap
     ethr =  3.05E-08,  avg # of iterations =  2.0

     negative rho (up, down):  6.625E-02 0.000E+00

     total cpu time spent up to now is      693.8 secs

     total energy              =   -9109.48512517 Ry
     estimated scf accuracy    <       0.00003514 Ry

     iteration # 18     ecut=    60.00 Ry     beta= 0.20
     Davidson diagonalization with overlap
     ethr =  1.60E-08,  avg # of iterations =  2.0

     negative rho (up, down):  6.632E-02 0.000E+00

     total cpu time spent up to now is      731.0 secs

     total energy              =   -9109.48512558 Ry
     estimated scf accuracy    <       0.00006114 Ry

     iteration # 19     ecut=    60.00 Ry     beta= 0.20
     Davidson diagonalization with overlap
     ethr =  1.60E-08,  avg # of iterations =  1.5

     negative rho (up, down):  6.627E-02 0.000E+00

     total cpu time spent up to now is      768.1 secs

     total energy              =   -9109.48512571 Ry
     estimated scf accuracy    <       0.00004836 Ry

     iteration # 20     ecut=    60.00 Ry     beta= 0.20
     Davidson diagonalization with overlap
     ethr =  1.60E-08,  avg # of iterations =  1.0

     negative rho (up, down):  6.626E-02 0.000E+00

     total cpu time spent up to now is      804.7 secs

     total energy              =   -9109.48512738 Ry
     estimated scf accuracy    <       0.00004827 Ry

     iteration # 21     ecut=    60.00 Ry     beta= 0.20
     Davidson diagonalization with overlap
     ethr =  1.60E-08,  avg # of iterations =  1.0

     negative rho (up, down):  6.625E-02 0.000E+00

     total cpu time spent up to now is      841.3 secs

     total energy              =   -9109.48512909 Ry
     estimated scf accuracy    <       0.00000186 Ry

     iteration # 22     ecut=    60.00 Ry     beta= 0.20
     Davidson diagonalization with overlap
     ethr =  8.45E-10,  avg # of iterations =  2.1

     negative rho (up, down):  6.621E-02 0.000E+00

     total cpu time spent up to now is      878.5 secs

     total energy              =   -9109.48512909 Ry
     estimated scf accuracy    <       0.00000118 Ry

     iteration # 23     ecut=    60.00 Ry     beta= 0.20
     Davidson diagonalization with overlap
     ethr =  5.35E-10,  avg # of iterations =  2.0

     negative rho (up, down):  6.618E-02 0.000E+00

     total cpu time spent up to now is      915.7 secs

     total energy              =   -9109.48512910 Ry
     estimated scf accuracy    <       0.00000088 Ry

     iteration # 24     ecut=    60.00 Ry     beta= 0.20
     Davidson diagonalization with overlap
     ethr =  4.02E-10,  avg # of iterations =  1.8

     negative rho (up, down):  6.615E-02 0.000E+00

     total cpu time spent up to now is      952.7 secs

     total energy              =   -9109.48512920 Ry
     estimated scf accuracy    <       0.00000015 Ry

     iteration # 25     ecut=    60.00 Ry     beta= 0.20
     Davidson diagonalization with overlap
     ethr =  7.00E-11,  avg # of iterations =  2.3

     negative rho (up, down):  6.613E-02 0.000E+00

     total cpu time spent up to now is      989.6 secs

     total energy              =   -9109.48512922 Ry
     estimated scf accuracy    <       0.00000005 Ry

     iteration # 26     ecut=    60.00 Ry     beta= 0.20
     Davidson diagonalization with overlap
     ethr =  2.33E-11,  avg # of iterations =  2.2

     negative rho (up, down):  6.611E-02 0.000E+00

     total cpu time spent up to now is     1026.6 secs

     total energy              =   -9109.48512923 Ry
     estimated scf accuracy    <       0.00000004 Ry

     iteration # 27     ecut=    60.00 Ry     beta= 0.20
     Davidson diagonalization with overlap
     ethr =  1.97E-11,  avg # of iterations =  2.0

     negative rho (up, down):  6.610E-02 0.000E+00

     total cpu time spent up to now is     1063.3 secs

     total energy              =   -9109.48512923 Ry
     estimated scf accuracy    <       0.00000001 Ry

     iteration # 28     ecut=    60.00 Ry     beta= 0.20
     Davidson diagonalization with overlap
     ethr =  5.05E-12,  avg # of iterations =  2.0

     negative rho (up, down):  6.609E-02 0.000E+00

     total cpu time spent up to now is     1100.4 secs

     End of self-consistent calculation

          k = 0.0000 0.0000 0.0000 ( 82327 PWs)   bands (ev):

  -103.5430-103.2869-103.2532-102.9753-102.8642-102.7601 -68.5685 -68.4988
   -68.3531 -67.8510 -64.0614 -63.9936 -63.9036 -63.8500 -63.8293 -63.6983
   -63.6335 -63.5726 -63.5382 -63.5127 -63.4301 -63.3580 -63.2829 -63.2565
   -63.2554 -63.2276 -63.1463 -63.0427 -35.0789 -35.0178 -35.0042 -34.9815
   -34.9403 -34.9338 -34.8587 -34.7888 -34.7796 -34.7682 -34.4647 -34.3932
   -13.6051 -12.8088 -12.6066 -12.3565 -11.9505 -11.7469 -11.6061 -11.5529
   -11.4318 -11.2364  -6.5111  -6.0704  -5.8182  -5.6035  -5.5446  -5.2949
    -5.2384  -4.8634  -4.5928  -4.1795  -4.1127  -4.0928  -3.8931  -3.7155
    -3.6405  -3.6274  -3.5274  -3.5138  -3.3206  -3.1824  -3.0361  -3.0077
    -2.7316  -2.7161  -2.6726  -2.5854  -2.5690  -2.4404  -2.4389  -2.2234
    -2.1635  -2.0905  -1.9862  -1.9137  -1.8998  -1.8719  -1.6933  -1.6906
    -1.6079  -1.5694  -1.5513  -1.3567  -1.2642  -1.2219  -1.1805  -1.0741
    -1.0025  -0.9534  -0.9390  -0.8741  -0.7487  -0.6304  -0.5460  -0.5063
    -0.4247  -0.2835  -0.2542  -0.1470   0.0600   0.1528   0.2047   0.3689
     0.9205   0.9878   1.1758   1.3124   1.4211   1.6767   1.7830   1.8569
     2.0027   2.1282   2.5003   2.6027   3.0132   3.1860   3.2484   3.2907
     3.4927   3.5487   3.6620   3.7152

          k = 0.0000 0.4627 0.0000 ( 82323 PWs)   bands (ev):

  -103.5430-103.2868-103.2533-102.9752-102.8642-102.7601 -68.5683 -68.4987
   -68.3529 -67.8509 -64.0615 -63.9938 -63.9033 -63.8502 -63.8295 -63.6974
   -63.6359 -63.5707 -63.5383 -63.5129 -63.4303 -63.3575 -63.2856 -63.2555
   -63.2542 -63.2276 -63.1462 -63.0426 -35.0781 -35.0170 -35.0112 -34.9805
   -34.9473 -34.9331 -34.8578 -34.7958 -34.7787 -34.7675 -34.4635 -34.4010
   -13.5214 -12.7488 -12.5186 -12.2719 -11.8850 -11.6954 -11.5530 -11.4979
   -11.3802 -11.2019  -6.4193  -5.9968  -5.7303  -5.5210  -5.4974  -5.2120
    -5.1443  -4.8040  -4.5256  -4.2812  -4.1488  -4.0987  -3.9067  -3.7723
    -3.7531  -3.6586  -3.5474  -3.4567  -3.3950  -3.2157  -3.0693  -2.9961
    -2.9591  -2.7844  -2.7650  -2.7261  -2.6436  -2.6057  -2.4671  -2.3206
    -2.2198  -2.1352  -2.0599  -1.9899  -1.9646  -1.9017  -1.8501  -1.7455
    -1.6712  -1.6093  -1.5645  -1.4835  -1.4267  -1.3966  -1.2373  -1.2043
    -1.1461  -1.0852  -0.9278  -0.9253  -0.7937  -0.6196  -0.5978  -0.5339
    -0.4601  -0.3273  -0.2080  -0.1184   0.0481   0.1417   0.3247   0.5054
     0.7530   0.9893   1.1108   1.2856   1.3802   1.6511   1.7133   1.7848
     2.0055   2.1175   2.2430   2.5808   2.7270   2.8342   2.9646   3.0815
     3.3016   3.4755   3.5191   3.8563

          k = 0.0000 0.9255 0.0000 ( 82311 PWs)   bands (ev):

  -103.5430-103.2865-103.2536-102.9751-102.8643-102.7601 -68.5679 -68.4983
   -68.3525 -67.8506 -64.0617 -63.9942 -63.9028 -63.8503 -63.8296 -63.6952
   -63.6421 -63.5662 -63.5383 -63.5135 -63.4306 -63.3562 -63.2917 -63.2555
   -63.2496 -63.2277 -63.1460 -63.0427 -35.0759 -35.0297 -35.0147 -34.9780
   -34.9655 -34.9314 -34.8556 -34.8141 -34.7763 -34.7655 -34.4604 -34.4212
   -13.2891 -12.5831 -12.2644 -12.0295 -11.7122 -11.5527 -11.4096 -11.3409
   -11.2406 -11.1101  -6.1974  -5.8053  -5.5053  -5.4645  -5.3194  -4.9802
    -4.9244  -4.7364  -4.5454  -4.4851  -4.2158  -4.1288  -4.1051  -3.9415
    -3.8888  -3.7977  -3.7417  -3.7181  -3.6248  -3.4296  -3.2735  -3.1876
    -3.0885  -3.0470  -2.9624  -2.8923  -2.8007  -2.6421  -2.5996  -2.5128
    -2.4015  -2.3099  -2.2986  -2.2002  -2.1116  -1.9899  -1.9702  -1.9229
    -1.8149  -1.7038  -1.6214  -1.6020  -1.5631  -1.4598  -1.3928  -1.3562
    -1.2578  -1.2570  -1.0325  -0.9261  -0.9054  -0.7954  -0.7286  -0.6670
    -0.5946  -0.5285  -0.2646  -0.2609  -0.0897   0.0104   0.4960   0.7198
     0.9220   0.9942   1.1631   1.2217   1.3113   1.5120   1.6285   1.7501
     1.9073   2.0593   2.1810   2.3086   2.4596   2.6263   2.7697   2.9944
     3.0491   3.5378   3.8919   4.1410

          k = 0.0000 1.3882 0.0000 ( 82161 PWs)   bands (ev):

  -103.5430-103.2862-103.2538-102.9750-102.8644-102.7601 -68.5674 -68.4978
   -68.3520 -67.8503 -64.0618 -63.9946 -63.9020 -63.8503 -63.8297 -63.6914
   -63.6499 -63.5610 -63.5383 -63.5142 -63.4309 -63.3542 -63.2980 -63.2554
   -63.2451 -63.2276 -63.1457 -63.0427 -35.0732 -35.0523 -35.0120 -34.9882
   -34.9746 -34.9292 -34.8528 -34.8365 -34.7733 -34.7630 -34.4567 -34.4461
   -12.9737 -12.3397 -11.8864 -11.6760 -11.4977 -11.3565 -11.2340 -11.1213
   -11.0572 -10.9939  -6.1385  -5.6903  -5.5084  -5.3600  -5.3142  -5.0464
    -4.9964  -4.8695  -4.7604  -4.7487  -4.5534  -4.2960  -4.2469  -4.0356
    -3.9588  -3.9125  -3.8691  -3.7975  -3.7070  -3.5667  -3.4078  -3.2731
    -3.2096  -3.1297  -3.0615  -3.0297  -2.8917  -2.8024  -2.7266  -2.5981
    -2.5431  -2.4154  -2.3945  -2.3146  -2.2139  -2.1488  -2.0598  -2.0210
    -1.9547  -1.7920  -1.7531  -1.7011  -1.6400  -1.5675  -1.4581  -1.3898
    -1.3577  -1.2562  -1.2187  -1.0733  -1.0341  -0.9835  -0.9164  -0.8450
    -0.6873  -0.5559  -0.4972  -0.4497  -0.3383  -0.1512   0.3404   0.8006
     0.9964   1.0695   1.3141   1.3494   1.4083   1.5444   1.7069   1.7995
     2.0038   2.0951   2.3230   2.5201   2.5572   2.6261   2.7675   3.1153
     3.3558   3.3944   3.6566   3.7977

          k = 0.0000 1.8510 0.0000 ( 82005 PWs)   bands (ev):

  -103.5430-103.2859-103.2541-102.9750-102.8644-102.7601 -68.5670 -68.4973
   -68.3516 -67.8500 -64.0620 -63.9949 -63.9011 -63.8503 -63.8299 -63.6870
   -63.6568 -63.5571 -63.5383 -63.5149 -63.4312 -63.3520 -63.3028 -63.2553
   -63.2420 -63.2276 -63.1454 -63.0425 -35.0716 -35.0701 -35.0101 -35.0059
   -34.9721 -34.9275 -34.8549 -34.8504 -34.7709 -34.7610 -34.4663 -34.4535
   -12.7010 -12.0602 -11.4861 -11.3563 -11.2939 -11.1702 -11.1228 -10.9703
   -10.9108 -10.8641  -6.4221  -6.0143  -5.9419  -5.8056  -5.5380  -5.3617
    -5.0454  -5.0341  -4.8798  -4.7274  -4.5573  -4.4328  -4.1789  -4.0061
    -3.8863  -3.8280  -3.6838  -3.6235  -3.6096  -3.5417  -3.4148  -3.3191
    -3.2485  -3.1598  -3.1110  -3.0604  -2.9731  -2.9052  -2.7984  -2.6625
    -2.5687  -2.5070  -2.4223  -2.3670  -2.2872  -2.1820  -2.1127  -2.0010
    -1.9659  -1.9184  -1.8421  -1.7628  -1.6983  -1.6829  -1.5298  -1.4634
    -1.4272  -1.4002  -1.2389  -1.1494  -1.1209  -1.0795  -1.0452  -0.9914
    -0.7695  -0.6975  -0.6749  -0.6157  -0.4595  -0.3089   0.2018   0.6344
     0.9607   1.1828   1.3402   1.4073   1.5529   1.8666   2.0000   2.0446
     2.1101   2.2148   2.3677   2.4529   2.7004   2.9562   3.0272   3.0917
     3.3839   3.3996   3.4411   3.6384

          k = 0.0000-2.3137 0.0000 ( 81938 PWs)   bands (ev):

  -103.5430-103.2858-103.2542-102.9749-102.8645-102.7601 -68.5668 -68.4972
   -68.3514 -67.8499 -64.0620 -63.9951 -63.9007 -63.8503 -63.8299 -63.6847
   -63.6598 -63.5557 -63.5383 -63.5153 -63.4313 -63.3511 -63.3045 -63.2553
   -63.2408 -63.2276 -63.1453 -63.0424 -35.0777 -35.0701 -35.0135 -35.0084
   -34.9711 -34.9268 -34.8617 -34.8496 -34.7700 -34.7602 -34.4739 -34.4523
   -12.5965 -11.9055 -11.2900 -11.2402 -11.2016 -11.1455 -10.9974 -10.9670
   -10.8692 -10.8015  -6.5584  -6.2420  -6.2056  -6.0347  -5.7142  -5.5158
    -5.1651  -5.1035  -4.7229  -4.7040  -4.5804  -4.4491  -4.1015  -3.8595
    -3.8114  -3.7640  -3.6404  -3.6382  -3.6214  -3.3710  -3.3477  -3.3074
    -3.2389  -3.2344  -3.1471  -3.0721  -2.9991  -2.9312  -2.8388  -2.7324
    -2.5544  -2.5298  -2.4070  -2.3949  -2.2080  -2.1836  -2.1129  -2.0569
    -1.9977  -1.9381  -1.8198  -1.7716  -1.7229  -1.7081  -1.5866  -1.5416
    -1.4432  -1.4300  -1.2361  -1.2027  -1.1923  -1.1275  -1.0354  -0.9678
    -0.8847  -0.8169  -0.7915  -0.7193  -0.4232  -0.3519   0.1845   0.5867
     0.8968   1.2850   1.3097   1.3355   1.6964   1.8045   1.8291   2.1656
     2.2552   2.3873   2.5790   2.5966   2.6889   2.9142   2.9614   3.1473
     3.3495   3.3825   3.6071   3.6542

          k =-0.5000 0.0000 0.0000 ( 82326 PWs)   bands (ev):

  -103.5430-103.2869-103.2532-102.9753-102.8642-102.7601 -68.5685 -68.4988
   -68.3531 -67.8510 -64.0614 -63.9936 -63.9036 -63.8501 -63.8293 -63.6982
   -63.6335 -63.5726 -63.5382 -63.5126 -63.4301 -63.3580 -63.2829 -63.2565
   -63.2554 -63.2276 -63.1463 -63.0426 -35.0789 -35.0178 -35.0042 -34.9815
   -34.9403 -34.9338 -34.8587 -34.7888 -34.7796 -34.7682 -34.4647 -34.3932
   -13.6035 -12.8239 -12.6349 -12.1944 -12.0627 -11.8416 -11.6083 -11.4941
   -11.3463 -11.2905  -6.5089  -6.1087  -5.8822  -5.6215  -5.4487  -5.2305
    -5.1799  -4.8306  -4.6268  -4.4555  -4.0928  -4.0653  -3.7975  -3.7456
    -3.6384  -3.5326  -3.5085  -3.4514  -3.1918  -3.1643  -3.0859  -3.0502
    -3.0393  -2.7123  -2.6834  -2.5628  -2.5071  -2.4307  -2.4298  -2.2626
    -2.2471  -2.0138  -1.9850  -1.9622  -1.8712  -1.7758  -1.7245  -1.6858
    -1.6140  -1.5912  -1.4902  -1.3994  -1.3507  -1.1675  -1.1316  -1.0567
    -1.0082  -0.9275  -0.9034  -0.8294  -0.7863  -0.6834  -0.5401  -0.4257
    -0.4093  -0.3422  -0.2508  -0.1289   0.0379   0.1486   0.2247   0.3439
     0.9415   1.0005   1.2444   1.3034   1.4690   1.5068   1.7212   1.9230
     1.9839   2.0300   2.5456   2.6699   2.9886   3.0475   3.2343   3.2839
     3.4894   3.5513   3.7537   3.8465

          k =-0.5000 0.4627 0.0000 ( 82290 PWs)   bands (ev):

  -103.5430-103.2868-103.2533-102.9752-102.8642-102.7601 -68.5683 -68.4987
   -68.3529 -67.8509 -64.0614 -63.9937 -63.9034 -63.8501 -63.8294 -63.6974
   -63.6359 -63.5707 -63.5382 -63.5129 -63.4302 -63.3575 -63.2857 -63.2554
   -63.2542 -63.2276 -63.1462 -63.0426 -35.0781 -35.0170 -35.0112 -34.9805
   -34.9473 -34.9331 -34.8578 -34.7958 -34.7787 -34.7675 -34.4635 -34.4010
   -13.5200 -12.7586 -12.5527 -12.1126 -11.9851 -11.7918 -11.5561 -11.4453
   -11.3002 -11.2503  -6.4154  -6.0311  -5.7986  -5.5355  -5.4020  -5.1512
    -5.0949  -4.7720  -4.5679  -4.4328  -4.2482  -4.0340  -3.8855  -3.8175
    -3.6993  -3.5788  -3.4561  -3.4236  -3.3141  -3.2214  -3.1224  -3.0754
    -2.9570  -2.9144  -2.7950  -2.7343  -2.6565  -2.5365  -2.4487  -2.3589
    -2.2355  -2.1680  -2.0147  -1.9890  -1.9461  -1.8723  -1.8561  -1.7775
    -1.6880  -1.6614  -1.5553  -1.4705  -1.4234  -1.3064  -1.2747  -1.1797
    -1.1217  -1.0820  -0.9491  -0.8820  -0.7871  -0.6868  -0.6182  -0.5627
    -0.3714  -0.3617  -0.1599  -0.1188   0.0331   0.1506   0.3555   0.4813
     0.8292   0.9797   1.1199   1.3526   1.4234   1.4957   1.6907   1.7994
     1.9175   2.0759   2.3378   2.4651   2.7659   2.8205   2.9101   3.1284
     3.2281   3.4259   3.5691   3.8257

          k =-0.5000 0.9255 0.0000 ( 82230 PWs)   bands (ev):

  -103.5430-103.2865-103.2536-102.9751-102.8643-102.7601 -68.5679 -68.4983
   -68.3525 -67.8506 -64.0616 -63.9941 -63.9028 -63.8502 -63.8295 -63.6951
   -63.6421 -63.5661 -63.5382 -63.5134 -63.4305 -63.3561 -63.2916 -63.2554
   -63.2495 -63.2276 -63.1459 -63.0427 -35.0759 -35.0297 -35.0147 -34.9780
   -34.9655 -34.9314 -34.8556 -34.8141 -34.7763 -34.7655 -34.4604 -34.4212
   -13.2881 -12.5852 -12.3048 -11.8842 -11.7722 -11.6496 -11.4161 -11.3175
   -11.1721 -11.1415  -6.1853  -5.8213  -5.6027  -5.3904  -5.2980  -4.9958
    -4.8874  -4.7429  -4.5422  -4.4162  -4.3495  -4.1698  -4.0853  -3.9751
    -3.9273  -3.7593  -3.7072  -3.5881  -3.5056  -3.4000  -3.3389  -3.2214
    -3.1177  -3.0548  -2.9995  -2.8796  -2.7865  -2.6973  -2.5951  -2.5182
    -2.4199  -2.3792  -2.2706  -2.1328  -2.1073  -2.0198  -1.9796  -1.9563
    -1.8892  -1.7198  -1.6382  -1.5515  -1.4831  -1.4352  -1.3888  -1.3395
    -1.2444  -1.1965  -1.1144  -0.9939  -0.9466  -0.7848  -0.7608  -0.6796
    -0.6106  -0.4477  -0.3281  -0.1415  -0.0482   0.0524   0.4869   0.7300
     0.9569   0.9775   1.1217   1.2772   1.4060   1.5532   1.6093   1.7288
     1.7814   1.9353   2.1798   2.2544   2.4890   2.7366   2.8127   2.9170
     2.9458   3.5244   3.9227   4.0863

          k =-0.5000 1.3882 0.0000 ( 82170 PWs)   bands (ev):

  -103.5430-103.2862-103.2538-102.9750-102.8644-102.7601 -68.5674 -68.4978
   -68.3520 -67.8503 -64.0618 -63.9946 -63.9020 -63.8502 -63.8297 -63.6914
   -63.6499 -63.5610 -63.5383 -63.5143 -63.4309 -63.3541 -63.2981 -63.2553
   -63.2451 -63.2276 -63.1457 -63.0427 -35.0732 -35.0523 -35.0120 -34.9882
   -34.9746 -34.9292 -34.8528 -34.8365 -34.7733 -34.7630 -34.4567 -34.4461
   -12.9733 -12.3389 -11.9215 -11.5706 -11.5127 -11.4174 -11.2407 -11.1572
   -11.0076 -10.9963  -6.1161  -5.6914  -5.4913  -5.4059  -5.2801  -5.1328
    -5.0593  -4.8710  -4.7501  -4.7333  -4.4123  -4.2757  -4.2569  -4.1105
    -3.9937  -3.9239  -3.8489  -3.7169  -3.6647  -3.5411  -3.4711  -3.2780
    -3.2334  -3.0890  -3.0302  -3.0028  -2.8782  -2.7787  -2.7402  -2.6560
    -2.5942  -2.4910  -2.3500  -2.3259  -2.1832  -2.1483  -2.0892  -2.0364
    -1.9621  -1.8181  -1.8073  -1.7086  -1.6423  -1.4959  -1.4265  -1.4029
    -1.3581  -1.2272  -1.1964  -1.0696  -1.0598  -0.9710  -0.9605  -0.8264
    -0.6989  -0.5789  -0.5186  -0.4116  -0.3527  -0.1185   0.3452   0.7494
     1.0869   1.2228   1.2991   1.4013   1.4948   1.5423   1.5733   1.7467
     1.9417   2.1130   2.2423   2.3216   2.6538   2.7872   2.8694   3.0563
     3.2191   3.2827   3.7124   3.9155

          k =-0.5000 1.8510 0.0000 ( 82020 PWs)   bands (ev):

  -103.5430-103.2859-103.2541-102.9750-102.8644-102.7601 -68.5670 -68.4973
   -68.3516 -67.8500 -64.0619 -63.9949 -63.9012 -63.8504 -63.8299 -63.6870
   -63.6568 -63.5570 -63.5383 -63.5149 -63.4312 -63.3521 -63.3027 -63.2554
   -63.2420 -63.2275 -63.1453 -63.0426 -35.0716 -35.0701 -35.0101 -35.0059
   -34.9721 -34.9275 -34.8549 -34.8504 -34.7709 -34.7610 -34.4663 -34.4535
   -12.7010 -12.0597 -11.5024 -11.3420 -11.2797 -11.1790 -11.1129 -10.9995
   -10.8958 -10.8641  -6.4245  -6.0534  -5.9174  -5.7766  -5.5058  -5.2644
    -5.1761  -5.1212  -4.8480  -4.7158  -4.5478  -4.4008  -4.2340  -4.0181
    -3.8963  -3.8273  -3.7142  -3.6186  -3.5742  -3.5329  -3.3513  -3.2656
    -3.2537  -3.1630  -3.0749  -3.0406  -2.9543  -2.9243  -2.7769  -2.7470
    -2.5539  -2.5268  -2.4397  -2.4305  -2.2003  -2.1633  -2.1431  -2.0418
    -1.9693  -1.9090  -1.8876  -1.7915  -1.7444  -1.6253  -1.5020  -1.4603
    -1.3930  -1.3493  -1.2687  -1.2144  -1.1211  -1.0686  -1.0111  -0.9754
    -0.7942  -0.7602  -0.6894  -0.6020  -0.4812  -0.2695   0.2063   0.6300
     0.9753   1.2609   1.4015   1.4938   1.6142   1.8403   1.9319   2.0114
     2.0647   2.1420   2.3261   2.5324   2.6153   2.8721   2.9962   3.1821
     3.2383   3.3560   3.6059   3.6690

          k =-0.5000-2.3137 0.0000 ( 81920 PWs)   bands (ev):

  -103.5430-103.2858-103.2542-102.9749-102.8645-102.7601 -68.5668 -68.4972
   -68.3514 -67.8499 -64.0620 -63.9951 -63.9007 -63.8504 -63.8300 -63.6847
   -63.6598 -63.5556 -63.5383 -63.5152 -63.4313 -63.3511 -63.3045 -63.2554
   -63.2408 -63.2275 -63.1453 -63.0424 -35.0777 -35.0701 -35.0135 -35.0084
   -34.9711 -34.9268 -34.8617 -34.8496 -34.7700 -34.7602 -34.4739 -34.4523
   -12.5965 -11.9055 -11.2900 -11.2394 -11.2019 -11.1460 -11.0000 -10.9674
   -10.8667 -10.8008  -6.5804  -6.2989  -6.1583  -5.9952  -5.7025  -5.3841
    -5.2884  -5.1019  -4.8070  -4.7200  -4.5572  -4.4560  -4.0687  -3.9092
    -3.8394  -3.7504  -3.6579  -3.5571  -3.5325  -3.4413  -3.3927  -3.3243
    -3.2366  -3.2354  -3.1542  -3.0603  -2.9125  -2.8777  -2.7902  -2.7834
    -2.5469  -2.5428  -2.4309  -2.3627  -2.2312  -2.1886  -2.1218  -2.0540
    -2.0084  -1.9552  -1.8306  -1.8029  -1.7419  -1.6993  -1.5919  -1.4700
    -1.4435  -1.3992  -1.3270  -1.2091  -1.1691  -1.1064  -1.0442  -0.9607
    -0.9422  -0.8555  -0.7352  -0.7282  -0.4256  -0.3425   0.1890   0.6007
     0.9009   1.3236   1.3856   1.4339   1.4851   1.7632   2.0800   2.1792
     2.2872   2.3662   2.3797   2.5336   2.6495   2.8233   3.0089   3.1402
     3.2115   3.2969   3.7742   3.8166

     the Fermi energy is     0.1717 ev

!    total energy              =   -9109.48512923 Ry
     total all-electron energy =     -9109.485129 Ry
     estimated scf accuracy    <          5.9E-09 Ry
     smearing contrib. (-TS)   =      -0.00031025 Ry
     internal energy E=F+TS    =   -9109.48481899 Ry

     The total energy is F=E-TS. E is the sum of the following terms:
     one-electron contribution =  -16984.22728029 Ry
     hartree contribution      =    8352.23274420 Ry
     xc contribution           =    -365.77163846 Ry
     ewald contribution        =    6156.07368232 Ry
     one-center paw contrib.   =   -6267.79232676 Ry

     convergence has been achieved in  28 iterations

     negative rho (up, down):  6.609E-02 0.000E+00

     Forces acting on atoms (cartesian axes, Ry/au):

     atom    1 type  1   force =    -0.42346613    0.00000000    0.29759078
     atom    2 type  1   force =     0.01091436    0.00000000   -0.00018559
     atom    3 type  1   force =     0.03975310    0.00000000    0.00761870
     atom    4 type  1   force =     0.00654031    0.00000000   -0.00673314
     atom    5 type  2   force =    -0.00996900    0.00000000   -0.00403392
     atom    6 type  2   force =    -0.00241815    0.00000000   -0.00411741
     atom    7 type  2   force =    -0.00353026    0.00000000   -0.00056535
     atom    8 type  2   force =    -0.02700520    0.00000000    0.01036069
     atom    9 type  2   force =    -0.00571988    0.00000000    0.00096627
     atom   10 type  2   force =     0.25548625    0.00000000   -0.18788790
     atom   11 type  3   force =    -0.05832017    0.00000000   -0.01092431
     atom   12 type  3   force =    -0.00109629    0.00000000    0.00128472
     atom   13 type  3   force =     0.00159802    0.00000000    0.00051914
     atom   14 type  3   force =     0.08902169    0.00000000    0.00357740
     atom   15 type  3   force =    -0.00066782    0.00000000    0.00122185
     atom   16 type  3   force =     0.00290433    0.00000000    0.00148378
     atom   17 type  3   force =     0.00006874    0.00000000    0.00046368
     atom   18 type  3   force =    -0.21853754    0.00000000    0.22595902
     atom   19 type  3   force =     0.34908839    0.00000000   -0.33773835
     atom   20 type  3   force =    -0.00464477    0.00000000    0.00113994

     Total force =     0.847096     Total SCF correction =     0.000413


     Computing stress (Cartesian axis) and pressure


     negative rho (up, down):  6.609E-02 0.000E+00
          total   stress  (Ry/bohr**3)                   (kbar)     P=       22.25
   0.00025283   0.00000000  -0.00012257           37.19        0.00      -18.03
   0.00000000   0.00005940   0.00000000            0.00        8.74        0.00
  -0.00012257   0.00000000   0.00014152          -18.03        0.00       20.82


     BFGS Geometry Optimization
     Energy error            =      0.0E+00 Ry
     Gradient error          =      4.2E-01 Ry/Bohr

     number of scf cycles    =   1
     number of bfgs steps    =   0

     energy             new  =   -9109.4851292317 Ry

     new trust radius        =       0.5000000000 bohr
     new conv_thr            =       0.0000000100 Ry


ATOMIC_POSITIONS (angstrom)
Ta              15.1753614336        0.9149235643       12.5959711061
Ta               6.5771300267        2.7447696811       12.5919014583
Ta               2.2854777283        0.9149235643       12.4475607049
Ta              11.0887968080        2.7447696811       12.5887144497
Ni              12.8593119243        0.9149235643       11.7596274233
Ni               4.0428639460        2.7447696811       13.2720390955
Ni               4.7906620264        0.9149235643       11.7611339487
Ni              13.5989553319        2.7447696811       13.2796974806
Ni               8.8254226157        0.9149235643       12.3686995623
Ni               0.1386835909        2.7447696811       12.5715599634
Te              14.1832286199        2.7447696811       10.5296721545
Te               5.3921614227        0.9149235643       14.5012288645
Te              10.5962500408        0.9149235643       10.5195992629
Te               1.8206587086        2.7447696811       14.5183237532
Te               3.4433472960        2.7447696811       10.5356581596
Te              12.2654742545        0.9149235643       14.5015510689
Te               7.0616535632        0.9149235643       10.5194083061
Te              15.7701837077        2.7447696811       14.6321792521
Te               0.1867557999        0.9149235643       10.6649644215
Te               8.8261835182        2.7447696811       14.1987605637



     Writing config-only to output data dir /ddn/data/physics/eamoujaes/2D-Ta2Ni3Te5/ELASTIC/OUT/ta2ni3te5.save/ :
     XML data file
     NEW-OLD atomic charge density approx. for the potential

     negative rho (up, down):  6.479E-02 0.000E+00

     total cpu time spent up to now is     1194.3 secs

     Self-consistent Calculation

     iteration #  1     ecut=    60.00 Ry     beta= 0.20
     Davidson diagonalization with overlap
     c_bands:  2 eigenvalues not converged
     c_bands:  1 eigenvalues not converged
     c_bands:  2 eigenvalues not converged
     c_bands:  1 eigenvalues not converged
     c_bands:  2 eigenvalues not converged
     c_bands:  1 eigenvalues not converged
     c_bands:  1 eigenvalues not converged
     c_bands:  2 eigenvalues not converged
     c_bands:  2 eigenvalues not converged
     c_bands:  1 eigenvalues not converged
     c_bands:  2 eigenvalues not converged
     ethr =  1.00E-06,  avg # of iterations = 19.9

     negative rho (up, down):  6.481E-02 0.000E+00

     total cpu time spent up to now is     1237.9 secs

     total energy              =   -9108.85628746 Ry
     estimated scf accuracy    <       3.74182680 Ry

     iteration #  2     ecut=    60.00 Ry     beta= 0.20
     Davidson diagonalization with overlap
     ethr =  1.70E-03,  avg # of iterations =  2.8

     negative rho (up, down):  6.491E-02 0.000E+00

     total cpu time spent up to now is     1274.7 secs

     total energy              =   -9106.89127034 Ry
     estimated scf accuracy    <      66.89987636 Ry

     iteration #  3     ecut=    60.00 Ry     beta= 0.20
     Davidson diagonalization with overlap
     ethr =  1.70E-03,  avg # of iterations =  2.4

     negative rho (up, down):  6.492E-02 0.000E+00

     total cpu time spent up to now is     1311.4 secs

     total energy              =   -9109.83587556 Ry
     estimated scf accuracy    <       8.96316346 Ry

     iteration #  4     ecut=    60.00 Ry     beta= 0.20
     Davidson diagonalization with overlap
     ethr =  1.70E-03,  avg # of iterations =  1.0

     negative rho (up, down):  6.499E-02 0.000E+00

     total cpu time spent up to now is     1347.8 secs

     total energy              =   -9109.95173381 Ry
     estimated scf accuracy    <       1.51985746 Ry

     iteration #  5     ecut=    60.00 Ry     beta= 0.20
     Davidson diagonalization with overlap
     ethr =  6.91E-04,  avg # of iterations =  1.0

     negative rho (up, down):  6.497E-02 0.000E+00

     total cpu time spent up to now is     1384.6 secs

     total energy              =   -9109.89696778 Ry
     estimated scf accuracy    <       0.29063537 Ry

     iteration #  6     ecut=    60.00 Ry     beta= 0.20
     Davidson diagonalization with overlap
     ethr =  1.32E-04,  avg # of iterations =  2.0

     negative rho (up, down):  6.497E-02 0.000E+00

     total cpu time spent up to now is     1421.3 secs

     total energy              =   -9109.89382644 Ry
     estimated scf accuracy    <       0.05819580 Ry

     iteration #  7     ecut=    60.00 Ry     beta= 0.20
     Davidson diagonalization with overlap
     ethr =  2.65E-05,  avg # of iterations =  3.9

     negative rho (up, down):  6.497E-02 0.000E+00

     total cpu time spent up to now is     1458.7 secs

     total energy              =   -9109.88287699 Ry
     estimated scf accuracy    <       0.04556215 Ry

     iteration #  8     ecut=    60.00 Ry     beta= 0.20
     Davidson diagonalization with overlap
     ethr =  2.07E-05,  avg # of iterations =  1.0

     negative rho (up, down):  6.495E-02 0.000E+00

     total cpu time spent up to now is     1495.4 secs

     total energy              =   -9109.83883436 Ry
     estimated scf accuracy    <       0.04206022 Ry

     iteration #  9     ecut=    60.00 Ry     beta= 0.20
     Davidson diagonalization with overlap
     ethr =  1.91E-05,  avg # of iterations =  2.0

     negative rho (up, down):  6.494E-02 0.000E+00

     total cpu time spent up to now is     1532.4 secs

     total energy              =   -9109.81475330 Ry
     estimated scf accuracy    <       0.00554979 Ry

     iteration # 10     ecut=    60.00 Ry     beta= 0.20
     Davidson diagonalization with overlap
     c_bands:  1 eigenvalues not converged
     ethr =  2.52E-06,  avg # of iterations = 12.5

     negative rho (up, down):  6.493E-02 0.000E+00

     total cpu time spent up to now is     1571.0 secs

     total energy              =   -9109.80053559 Ry
     estimated scf accuracy    <       0.05000167 Ry

     iteration # 11     ecut=    60.00 Ry     beta= 0.20
     Davidson diagonalization with overlap
     ethr =  2.52E-06,  avg # of iterations =  2.5

     negative rho (up, down):  6.493E-02 0.000E+00

     total cpu time spent up to now is     1608.1 secs

     total energy              =   -9109.79422107 Ry
     estimated scf accuracy    <       0.08851439 Ry

     iteration # 12     ecut=    60.00 Ry     beta= 0.20
     Davidson diagonalization with overlap
     ethr =  2.52E-06,  avg # of iterations =  2.0

     negative rho (up, down):  6.493E-02 0.000E+00

     total cpu time spent up to now is     1645.2 secs

     total energy              =   -9109.78747359 Ry
     estimated scf accuracy    <       0.02405163 Ry

     iteration # 13     ecut=    60.00 Ry     beta= 0.20
     Davidson diagonalization with overlap
     ethr =  2.52E-06,  avg # of iterations =  2.0

     negative rho (up, down):  6.494E-02 0.000E+00

     total cpu time spent up to now is     1682.5 secs

     total energy              =   -9109.78138065 Ry
     estimated scf accuracy    <       0.01809448 Ry

     iteration # 14     ecut=    60.00 Ry     beta= 0.20
     Davidson diagonalization with overlap
     ethr =  2.52E-06,  avg # of iterations =  2.3

     negative rho (up, down):  6.494E-02 0.000E+00

     total cpu time spent up to now is     1719.6 secs

     total energy              =   -9109.78205590 Ry
     estimated scf accuracy    <       0.00124877 Ry

     iteration # 15     ecut=    60.00 Ry     beta= 0.20
     Davidson diagonalization with overlap
     ethr =  5.68E-07,  avg # of iterations =  2.3

     negative rho (up, down):  6.493E-02 0.000E+00

     total cpu time spent up to now is     1756.5 secs

     total energy              =   -9109.78214675 Ry
     estimated scf accuracy    <       0.00057274 Ry

     iteration # 16     ecut=    60.00 Ry     beta= 0.20
     Davidson diagonalization with overlap
     ethr =  2.60E-07,  avg # of iterations =  1.2

     negative rho (up, down):  6.493E-02 0.000E+00

     total cpu time spent up to now is     1793.7 secs

     total energy              =   -9109.78213276 Ry
     estimated scf accuracy    <       0.00019537 Ry

     iteration # 17     ecut=    60.00 Ry     beta= 0.20
     Davidson diagonalization with overlap
     ethr =  8.88E-08,  avg # of iterations =  2.0

     negative rho (up, down):  6.492E-02 0.000E+00

     total cpu time spent up to now is     1830.5 secs

     total energy              =   -9109.78215095 Ry
     estimated scf accuracy    <       0.00005414 Ry

     iteration # 18     ecut=    60.00 Ry     beta= 0.20
     Davidson diagonalization with overlap
     ethr =  2.46E-08,  avg # of iterations =  3.0

     negative rho (up, down):  6.492E-02 0.000E+00

     total cpu time spent up to now is     1868.0 secs

     total energy              =   -9109.78213938 Ry
     estimated scf accuracy    <       0.00015825 Ry

     iteration # 19     ecut=    60.00 Ry     beta= 0.20
     Davidson diagonalization with overlap
     ethr =  2.46E-08,  avg # of iterations =  2.1

     negative rho (up, down):  6.491E-02 0.000E+00

     total cpu time spent up to now is     1905.2 secs

     total energy              =   -9109.78214777 Ry
     estimated scf accuracy    <       0.00001658 Ry

     iteration # 20     ecut=    60.00 Ry     beta= 0.20
     Davidson diagonalization with overlap
     ethr =  7.54E-09,  avg # of iterations =  2.0

     negative rho (up, down):  6.491E-02 0.000E+00

     total cpu time spent up to now is     1941.9 secs

     total energy              =   -9109.78214922 Ry
     estimated scf accuracy    <       0.00000236 Ry

     iteration # 21     ecut=    60.00 Ry     beta= 0.20
     Davidson diagonalization with overlap
     ethr =  1.07E-09,  avg # of iterations =  2.1

     negative rho (up, down):  6.491E-02 0.000E+00

     total cpu time spent up to now is     1979.5 secs

     total energy              =   -9109.78214907 Ry
     estimated scf accuracy    <       0.00000341 Ry

     iteration # 22     ecut=    60.00 Ry     beta= 0.20
     Davidson diagonalization with overlap
     ethr =  1.07E-09,  avg # of iterations =  1.0

     negative rho (up, down):  6.490E-02 0.000E+00

     total cpu time spent up to now is     2016.1 secs

     total energy              =   -9109.78214891 Ry
     estimated scf accuracy    <       0.00000163 Ry

     iteration # 23     ecut=    60.00 Ry     beta= 0.20
     Davidson diagonalization with overlap
     ethr =  7.39E-10,  avg # of iterations =  1.0

     negative rho (up, down):  6.490E-02 0.000E+00

     total cpu time spent up to now is     2052.9 secs

     total energy              =   -9109.78214888 Ry
     estimated scf accuracy    <       0.00000050 Ry

     iteration # 24     ecut=    60.00 Ry     beta= 0.20
     Davidson diagonalization with overlap
     ethr =  2.29E-10,  avg # of iterations =  2.0

     negative rho (up, down):  6.490E-02 0.000E+00

     total cpu time spent up to now is     2089.9 secs

     total energy              =   -9109.78214891 Ry
     estimated scf accuracy    <       0.00000054 Ry

     iteration # 25     ecut=    60.00 Ry     beta= 0.20
     Davidson diagonalization with overlap
     ethr =  2.29E-10,  avg # of iterations =  1.0

     negative rho (up, down):  6.490E-02 0.000E+00

     total cpu time spent up to now is     2126.8 secs

     total energy              =   -9109.78214895 Ry
     estimated scf accuracy    <       0.00000011 Ry

     iteration # 26     ecut=    60.00 Ry     beta= 0.20
     Davidson diagonalization with overlap
     ethr =  5.09E-11,  avg # of iterations =  1.2

     negative rho (up, down):  6.490E-02 0.000E+00

     total cpu time spent up to now is     2163.5 secs

     total energy              =   -9109.78214895 Ry
     estimated scf accuracy    <       0.00000004 Ry

     iteration # 27     ecut=    60.00 Ry     beta= 0.20
     Davidson diagonalization with overlap
     ethr =  1.67E-11,  avg # of iterations =  2.0

     negative rho (up, down):  6.490E-02 0.000E+00

     total cpu time spent up to now is     2201.1 secs

     total energy              =   -9109.78214895 Ry
     estimated scf accuracy    <       0.00000002 Ry

     iteration # 28     ecut=    60.00 Ry     beta= 0.20
     Davidson diagonalization with overlap
     ethr =  1.02E-11,  avg # of iterations =  1.4

     negative rho (up, down):  6.490E-02 0.000E+00

     total cpu time spent up to now is     2238.0 secs

     total energy              =   -9109.78214895 Ry
     estimated scf accuracy    <       0.00000004 Ry

     iteration # 29     ecut=    60.00 Ry     beta= 0.20
     Davidson diagonalization with overlap
     ethr =  1.02E-11,  avg # of iterations =  1.0

     negative rho (up, down):  6.490E-02 0.000E+00

     total cpu time spent up to now is     2274.4 secs

     End of self-consistent calculation

          k = 0.0000 0.0000 0.0000 ( 82327 PWs)   bands (ev):

  -103.3394-103.2598-103.1529-103.1410-103.0258-102.7485 -68.4431 -68.4420
   -68.3661 -68.2206 -63.8868 -63.8305 -63.7775 -63.7238 -63.7197 -63.6216
   -63.6176 -63.5599 -63.5568 -63.5251 -63.4980 -63.4527 -63.4408 -63.4112
   -63.3723 -63.2530 -63.2120 -63.0257 -34.9374 -34.9361 -34.8797 -34.8786
   -34.8758 -34.8753 -34.8712 -34.8181 -34.8173 -34.8104 -34.7129 -34.6933
   -13.0999 -12.5160 -12.5022 -12.2922 -11.8877 -11.7681 -11.5737 -11.5545
   -11.3425 -11.2089  -6.3409  -5.8186  -5.7283  -5.5659  -5.4942  -5.2805
    -5.2154  -4.7704  -4.5862  -4.0671  -3.9963  -3.8730  -3.7106  -3.6887
    -3.6171  -3.4957  -3.4582  -3.4435  -3.3920  -3.1096  -2.8593  -2.7934
    -2.7580  -2.6618  -2.5313  -2.4989  -2.4467  -2.3017  -2.2988  -2.2567
    -2.1518  -2.1334  -2.0032  -1.9291  -1.9082  -1.8376  -1.8107  -1.6712
    -1.5899  -1.5471  -1.3465  -1.3048  -1.2449  -1.2438  -1.1374  -1.0639
    -1.0187  -0.9946  -0.9587  -0.8917  -0.8641  -0.6123  -0.4967  -0.4723
    -0.4096  -0.2089  -0.1820  -0.1337   0.0042   0.1888   0.2416   0.3281
     1.0229   1.0504   1.1855   1.3411   1.4611   1.7301   1.8527   1.9741
     2.0216   2.3276   2.4655   2.5614   2.5719   2.9396   3.2391   3.3401
     3.5291   3.5574   3.5729   3.7266

          k = 0.0000 0.4627 0.0000 ( 82323 PWs)   bands (ev):

  -103.3393-103.2598-103.1527-103.1413-103.0258-102.7485 -68.4430 -68.4418
   -68.3659 -68.2204 -63.8870 -63.8309 -63.7770 -63.7238 -63.7199 -63.6286
   -63.6105 -63.5601 -63.5559 -63.5251 -63.5010 -63.4500 -63.4408 -63.4116
   -63.3723 -63.2531 -63.2120 -63.0256 -34.9365 -34.9352 -34.8828 -34.8823
   -34.8787 -34.8778 -34.8704 -34.8253 -34.8164 -34.8096 -34.7121 -34.7007
   -13.0110 -12.4350 -12.4111 -12.2298 -11.8205 -11.7236 -11.5125 -11.4974
   -11.2941 -11.1741  -6.2442  -5.7373  -5.6376  -5.4843  -5.4253  -5.1943
    -5.1307  -4.7025  -4.5201  -4.0427  -4.0212  -3.8993  -3.8469  -3.7296
    -3.6617  -3.5618  -3.5380  -3.4645  -3.2815  -3.1311  -3.0180  -2.8501
    -2.7934  -2.7734  -2.6663  -2.5840  -2.5613  -2.4203  -2.3730  -2.3423
    -2.1879  -2.0802  -2.0334  -1.9915  -1.9739  -1.9554  -1.9122  -1.6804
    -1.6494  -1.5809  -1.5385  -1.4704  -1.4144  -1.3537  -1.2979  -1.2694
    -1.1393  -1.1137  -1.0421  -0.8464  -0.7671  -0.7217  -0.5790  -0.4613
    -0.4518  -0.3396  -0.1993  -0.0496  -0.0151   0.0860   0.4415   0.5222
     0.8278   0.9982   1.2162   1.2719   1.4414   1.6186   1.7213   1.9871
     2.0298   2.1234   2.2590   2.3395   2.7521   2.8024   2.9496   3.0040
     3.1781   3.2905   3.5313   3.8312

          k = 0.0000 0.9255 0.0000 ( 82311 PWs)   bands (ev):

  -103.3392-103.2599-103.1519-103.1421-103.0257-102.7485 -68.4425 -68.4414
   -68.3655 -68.2200 -63.8872 -63.8314 -63.7760 -63.7237 -63.7202 -63.6367
   -63.6023 -63.5608 -63.5535 -63.5252 -63.5084 -63.4440 -63.4409 -63.4127
   -63.3723 -63.2531 -63.2120 -63.0258 -34.9341 -34.9329 -34.9010 -34.9006
   -34.8761 -34.8757 -34.8686 -34.8440 -34.8139 -34.8077 -34.7201 -34.7100
   -12.7626 -12.2191 -12.1479 -12.0392 -11.6436 -11.6004 -11.3450 -11.3332
   -11.1676 -11.0817  -6.0029  -5.5263  -5.4180  -5.3009  -5.2421  -4.9846
    -4.9154  -4.5845  -4.5256  -4.2304  -4.0942  -3.9970  -3.9504  -3.8646
    -3.7952  -3.7488  -3.7255  -3.6122  -3.5186  -3.4277  -3.1597  -3.0661
    -3.0190  -2.9595  -2.9210  -2.7997  -2.7137  -2.5988  -2.5409  -2.4663
    -2.3966  -2.3048  -2.2817  -2.1665  -2.0653  -2.0278  -1.9764  -1.8747
    -1.8365  -1.7531  -1.6752  -1.6208  -1.5444  -1.4617  -1.4046  -1.3832
    -1.2775  -1.2309  -1.0890  -0.9553  -0.7854  -0.7670  -0.7384  -0.7056
    -0.6428  -0.4098  -0.3609  -0.2868  -0.1405  -0.1107   0.6949   0.8068
     0.8830   1.1616   1.1771   1.2375   1.3402   1.4574   1.5149   1.6009
     2.0516   2.1210   2.1821   2.3271   2.3656   2.6759   2.6917   2.9180
     3.0491   3.1542   3.9144   4.1222

          k = 0.0000 1.3882 0.0000 ( 82161 PWs)   bands (ev):

  -103.3391-103.2600-103.1507-103.1432-103.0257-102.7485 -68.4420 -68.4409
   -68.3650 -68.2195 -63.8874 -63.8320 -63.7745 -63.7235 -63.7205 -63.6432
   -63.5953 -63.5617 -63.5493 -63.5251 -63.5173 -63.4409 -63.4369 -63.4146
   -63.3722 -63.2530 -63.2119 -63.0257 -34.9313 -34.9301 -34.9235 -34.9229
   -34.8732 -34.8729 -34.8676 -34.8654 -34.8109 -34.8053 -34.7439 -34.7075
   -12.4242 -11.9222 -11.7633 -11.7211 -11.4536 -11.3997 -11.1405 -11.0872
   -11.0227 -10.9679  -5.8528  -5.3907  -5.3484  -5.2791  -5.1745  -4.9290
    -4.8734  -4.7936  -4.6654  -4.6048  -4.4231  -4.2241  -4.1749  -3.9180
    -3.9132  -3.8802  -3.8355  -3.6732  -3.6540  -3.5052  -3.2891  -3.2058
    -3.1775  -3.1507  -3.0540  -2.9211  -2.8519  -2.7275  -2.6672  -2.5576
    -2.4858  -2.4424  -2.3642  -2.3434  -2.1979  -2.0562  -2.0285  -1.9768
    -1.9449  -1.8578  -1.7933  -1.7602  -1.6321  -1.5685  -1.5231  -1.4751
    -1.3260  -1.2717  -1.2131  -1.1384  -1.0447  -0.9413  -0.8575  -0.8013
    -0.6919  -0.6409  -0.6031  -0.4526  -0.3421  -0.2607   0.5489   0.7781
     1.0671   1.1423   1.2207   1.3595   1.4906   1.5320   1.6870   1.7226
     2.0086   2.1951   2.2530   2.4451   2.4938   2.6257   2.7905   3.0690
     3.1298   3.2983   3.6492   3.7914

          k = 0.0000 1.8510 0.0000 ( 82005 PWs)   bands (ev):

  -103.3390-103.2601-103.1494-103.1445-103.0257-102.7485 -68.4416 -68.4405
   -68.3645 -68.2191 -63.8876 -63.8325 -63.7730 -63.7234 -63.7208 -63.6473
   -63.5904 -63.5627 -63.5431 -63.5265 -63.5251 -63.4409 -63.4307 -63.4173
   -63.3720 -63.2530 -63.2119 -63.0256 -34.9419 -34.9412 -34.9287 -34.9274
   -34.8857 -34.8711 -34.8700 -34.8643 -34.8085 -34.8034 -34.7631 -34.7054
   -12.1399 -11.5599 -11.3886 -11.3586 -11.2901 -11.1960 -10.9990 -10.9906
   -10.8883 -10.8448  -6.0571  -5.8998  -5.8136  -5.7374  -5.2849  -5.1754
    -4.9952  -4.8210  -4.8126  -4.5600  -4.4671  -4.3350  -4.1341  -3.9572
    -3.8685  -3.7101  -3.6295  -3.4940  -3.4779  -3.4615  -3.3979  -3.3374
    -3.2465  -3.1346  -3.1163  -3.0418  -2.9410  -2.7195  -2.7066  -2.6295
    -2.5592  -2.5100  -2.3803  -2.3521  -2.2416  -2.0702  -2.0492  -2.0093
    -1.9542  -1.9369  -1.8617  -1.8153  -1.7826  -1.7138  -1.6038  -1.5679
    -1.4321  -1.3871  -1.2310  -1.1934  -1.1727  -1.0892  -1.0167  -0.9320
    -0.8677  -0.8096  -0.6743  -0.5895  -0.5378  -0.3903   0.4143   0.6113
     0.9240   1.2626   1.3294   1.3797   1.6201   2.0014   2.0200   2.0683
     2.1270   2.2059   2.3472   2.4086   2.5306   2.8796   3.0097   3.0735
     3.2593   3.3372   3.4096   3.6278

          k = 0.0000-2.3137 0.0000 ( 81938 PWs)   bands (ev):

  -103.3389-103.2602-103.1486-103.1453-103.0257-102.7485 -68.4415 -68.4403
   -68.3644 -68.2189 -63.8877 -63.8327 -63.7724 -63.7232 -63.7210 -63.6488
   -63.5886 -63.5633 -63.5373 -63.5332 -63.5251 -63.4409 -63.4276 -63.4193
   -63.3718 -63.2530 -63.2119 -63.0254 -34.9488 -34.9480 -34.9279 -34.9266
   -34.8927 -34.8703 -34.8690 -34.8636 -34.8076 -34.8026 -34.7704 -34.7046
   -12.0358 -11.2894 -11.2503 -11.1588 -11.1577 -11.1255 -11.0875 -10.9911
   -10.8258 -10.7912  -6.2175  -6.1300  -6.0534  -5.9981  -5.4465  -5.3529
    -5.0858  -4.9386  -4.6692  -4.6638  -4.4906  -4.1336  -3.8873  -3.8587
    -3.7729  -3.7305  -3.7066  -3.5155  -3.4511  -3.3846  -3.3062  -3.2907
    -3.2817  -3.1457  -3.1152  -3.0127  -2.8827  -2.8613  -2.8419  -2.6274
    -2.5455  -2.5254  -2.3590  -2.3017  -2.1741  -2.1068  -2.0544  -2.0254
    -1.9957  -1.9760  -1.8792  -1.8148  -1.7950  -1.6872  -1.6658  -1.6437
    -1.4525  -1.4281  -1.2349  -1.2102  -1.1978  -1.1641  -1.1201  -1.0105
    -0.9721  -0.9370  -0.7590  -0.6756  -0.5333  -0.4067   0.3921   0.5690
     0.8621   1.2928   1.3198   1.4672   1.6530   1.7611   2.0814   2.1068
     2.3693   2.3922   2.5679   2.5968   2.6092   2.7724   2.9905   3.0425
     3.2289   3.2925   3.4861   3.5390

          k =-0.5000 0.0000 0.0000 ( 82326 PWs)   bands (ev):

  -103.3394-103.2598-103.1529-103.1410-103.0258-102.7485 -68.4431 -68.4420
   -68.3661 -68.2206 -63.8868 -63.8306 -63.7774 -63.7238 -63.7197 -63.6216
   -63.6176 -63.5599 -63.5567 -63.5251 -63.4980 -63.4527 -63.4408 -63.4111
   -63.3723 -63.2531 -63.2120 -63.0256 -34.9374 -34.9361 -34.8797 -34.8786
   -34.8758 -34.8753 -34.8712 -34.8181 -34.8173 -34.8104 -34.7129 -34.6933
   -13.0870 -12.6821 -12.3257 -12.1624 -12.0455 -11.8525 -11.5403 -11.5182
   -11.2837 -11.2469  -6.3318  -5.9579  -5.7366  -5.5770  -5.3771  -5.2118
    -5.0828  -4.8265  -4.6009  -4.4033  -3.8785  -3.8340  -3.6880  -3.6681
    -3.5352  -3.4615  -3.4092  -3.3919  -3.3177  -3.1015  -3.0893  -2.8645
    -2.7609  -2.6674  -2.6633  -2.4562  -2.4489  -2.3913  -2.2999  -2.2776
    -2.1131  -2.0095  -2.0006  -1.9502  -1.9165  -1.7830  -1.7787  -1.6709
    -1.5972  -1.4789  -1.4653  -1.3321  -1.2388  -1.2093  -1.1199  -1.0308
    -1.0291  -0.9705  -0.9181  -0.8972  -0.7632  -0.5839  -0.5003  -0.4729
    -0.4601  -0.2548  -0.1680  -0.1227  -0.0039   0.1180   0.2509   0.3070
     1.1035   1.1550   1.2127   1.2326   1.5727   1.6109   1.7425   1.9025
     2.0220   2.3190   2.4644   2.5430   2.6531   2.8072   3.3082   3.3232
     3.4895   3.5164   3.7254   3.7578

          k =-0.5000 0.4627 0.0000 ( 82290 PWs)   bands (ev):

  -103.3393-103.2598-103.1527-103.1413-103.0257-102.7485 -68.4430 -68.4418
   -68.3659 -68.2204 -63.8869 -63.8308 -63.7770 -63.7238 -63.7198 -63.6287
   -63.6105 -63.5601 -63.5559 -63.5251 -63.5010 -63.4501 -63.4408 -63.4115
   -63.3723 -63.2531 -63.2120 -63.0256 -34.9365 -34.9352 -34.8828 -34.8823
   -34.8787 -34.8778 -34.8704 -34.8253 -34.8164 -34.8096 -34.7121 -34.7007
   -12.9991 -12.5887 -12.2696 -12.0813 -11.9660 -11.8035 -11.4874 -11.4675
   -11.2411 -11.2035  -6.2327  -5.8720  -5.6517  -5.4866  -5.3080  -5.1272
    -5.0140  -4.7585  -4.5458  -4.3524  -3.9914  -3.8762  -3.7805  -3.7382
    -3.5659  -3.4583  -3.4244  -3.3888  -3.3063  -3.2173  -3.0209  -2.9500
    -2.8292  -2.8065  -2.7300  -2.6264  -2.5708  -2.4369  -2.4014  -2.2390
    -2.2065  -2.1316  -2.0429  -1.9969  -1.9728  -1.8680  -1.8084  -1.7646
    -1.6935  -1.5785  -1.5212  -1.5068  -1.3875  -1.3581  -1.3229  -1.2340
    -1.1521  -1.0316  -0.9169  -0.9094  -0.7616  -0.7117  -0.5833  -0.4631
    -0.4357  -0.3562  -0.2372  -0.1588   0.0173   0.1963   0.4029   0.4840
     0.8969   0.9646   1.2765   1.3531   1.5412   1.5839   1.6448   1.8290
     1.9647   2.1089   2.2692   2.5050   2.5463   2.7467   2.9315   3.0686
     3.1420   3.2541   3.6077   3.7590

          k =-0.5000 0.9255 0.0000 ( 82230 PWs)   bands (ev):

  -103.3392-103.2599-103.1519-103.1421-103.0257-102.7485 -68.4425 -68.4414
   -68.3655 -68.2200 -63.8871 -63.8313 -63.7759 -63.7237 -63.7201 -63.6366
   -63.6023 -63.5607 -63.5535 -63.5251 -63.5083 -63.4439 -63.4408 -63.4126
   -63.3723 -63.2530 -63.2119 -63.0257 -34.9341 -34.9329 -34.9010 -34.9006
   -34.8761 -34.8757 -34.8686 -34.8440 -34.8139 -34.8077 -34.7201 -34.7100
   -12.7540 -12.3222 -12.1073 -11.8553 -11.7450 -11.6665 -11.3487 -11.3273
   -11.1249 -11.0880  -5.9793  -5.6489  -5.4301  -5.2615  -5.1486  -4.9558
    -4.8604  -4.7302  -4.3962  -4.3384  -4.1821  -4.0749  -3.9856  -3.9250
    -3.7314  -3.6288  -3.5473  -3.5146  -3.4254  -3.3936  -3.2534  -3.1036
    -3.0874  -3.0419  -2.9491  -2.7946  -2.7325  -2.5544  -2.5432  -2.4594
    -2.4263  -2.3396  -2.3006  -2.1876  -2.0652  -2.0116  -1.9772  -1.8925
    -1.8666  -1.8287  -1.6778  -1.5580  -1.4663  -1.4428  -1.3935  -1.3332
    -1.2345  -1.1859  -1.0912  -1.0626  -0.9100  -0.8513  -0.7559  -0.6742
    -0.6210  -0.3969  -0.3497  -0.2064  -0.0794  -0.0249   0.6121   0.7909
     0.9380   1.0444   1.2222   1.2719   1.4265   1.4704   1.6281   1.7411
     1.7597   1.9330   2.1987   2.3073   2.4761   2.7163   2.7740   2.8497
     2.8994   3.1122   3.9606   4.0716

          k =-0.5000 1.3882 0.0000 ( 82170 PWs)   bands (ev):

  -103.3391-103.2600-103.1507-103.1432-103.0257-102.7485 -68.4420 -68.4409
   -68.3650 -68.2195 -63.8874 -63.8320 -63.7745 -63.7235 -63.7205 -63.6432
   -63.5954 -63.5618 -63.5492 -63.5251 -63.5174 -63.4409 -63.4370 -63.4147
   -63.3722 -63.2530 -63.2120 -63.0257 -34.9313 -34.9301 -34.9235 -34.9229
   -34.8732 -34.8729 -34.8676 -34.8654 -34.8109 -34.8053 -34.7439 -34.7075
   -12.4207 -11.9337 -11.8435 -11.5530 -11.4771 -11.4337 -11.1692 -11.1474
   -10.9706 -10.9532  -5.8057  -5.5067  -5.2682  -5.2111  -5.1165  -5.0836
    -5.0171  -4.7750  -4.6501  -4.5409  -4.3983  -4.2337  -4.1039  -4.0084
    -3.9555  -3.8353  -3.7538  -3.6468  -3.5258  -3.4862  -3.4225  -3.3179
    -3.1437  -3.0283  -2.9857  -2.9428  -2.8625  -2.7668  -2.7071  -2.6278
    -2.4574  -2.4348  -2.3678  -2.3438  -2.1763  -2.1248  -2.0447  -2.0147
    -1.9425  -1.9060  -1.8328  -1.7270  -1.5989  -1.5318  -1.4743  -1.4147
    -1.3508  -1.2721  -1.2357  -1.1980  -1.0016  -0.9863  -0.8573  -0.8167
    -0.6858  -0.6169  -0.5553  -0.4613  -0.3894  -0.2192   0.5251   0.7497
     1.0316   1.2655   1.3930   1.4110   1.4938   1.5575   1.6056   1.7847
     1.9153   1.9828   2.2753   2.2967   2.6540   2.7917   2.8370   2.9982
     3.0399   3.1275   3.7095   3.9395

          k =-0.5000 1.8510 0.0000 ( 82020 PWs)   bands (ev):

  -103.3390-103.2601-103.1494-103.1445-103.0257-102.7485 -68.4416 -68.4405
   -68.3645 -68.2191 -63.8877 -63.8326 -63.7731 -63.7234 -63.7209 -63.6473
   -63.5904 -63.5627 -63.5432 -63.5264 -63.5251 -63.4409 -63.4306 -63.4173
   -63.3720 -63.2531 -63.2118 -63.0256 -34.9419 -34.9412 -34.9287 -34.9274
   -34.8857 -34.8711 -34.8700 -34.8643 -34.8085 -34.8034 -34.7631 -34.7054
   -12.1395 -11.5367 -11.4699 -11.3368 -11.2373 -11.1786 -11.0364 -11.0046
   -10.8736 -10.8427  -6.0779  -5.9562  -5.7522  -5.6524  -5.3097  -5.1269
    -5.0984  -4.8457  -4.8398  -4.5549  -4.3950  -4.3527  -4.1758  -3.9401
    -3.9047  -3.7244  -3.6459  -3.5152  -3.4794  -3.4328  -3.3276  -3.2476
    -3.2037  -3.1612  -3.0916  -3.0430  -2.9327  -2.8201  -2.6411  -2.6376
    -2.6170  -2.4798  -2.3844  -2.3347  -2.1775  -2.1614  -2.1043  -2.0214
    -1.9733  -1.9313  -1.8852  -1.8640  -1.7722  -1.6182  -1.5677  -1.5523
    -1.4271  -1.3704  -1.3079  -1.2016  -1.1330  -1.1072  -0.9695  -0.9603
    -0.9101  -0.8188  -0.7187  -0.6038  -0.5011  -0.3801   0.4134   0.6146
     0.9171   1.2666   1.4277   1.5995   1.6760   1.8028   2.0120   2.0477
     2.1008   2.1676   2.3122   2.4282   2.5625   2.6973   2.9812   3.0886
     3.2743   3.3397   3.4868   3.6069

          k =-0.5000-2.3137 0.0000 ( 81920 PWs)   bands (ev):

  -103.3389-103.2602-103.1486-103.1453-103.0257-102.7485 -68.4415 -68.4403
   -68.3644 -68.2189 -63.8877 -63.8327 -63.7724 -63.7233 -63.7210 -63.6487
   -63.5886 -63.5632 -63.5372 -63.5331 -63.5251 -63.4409 -63.4276 -63.4192
   -63.3718 -63.2530 -63.2119 -63.0254 -34.9488 -34.9480 -34.9279 -34.9266
   -34.8927 -34.8703 -34.8690 -34.8636 -34.8076 -34.8026 -34.7704 -34.7046
   -12.0358 -11.2900 -11.2485 -11.1583 -11.1549 -11.1280 -11.0906 -10.9931
   -10.8243 -10.7892  -6.2867  -6.2029  -5.9698  -5.8769  -5.4850  -5.2802
    -5.1613  -4.8475  -4.8260  -4.6973  -4.4480  -4.1445  -3.9276  -3.9217
    -3.7165  -3.6409  -3.6062  -3.5840  -3.5027  -3.3572  -3.3505  -3.2927
    -3.2600  -3.2185  -3.0673  -3.0640  -2.9028  -2.7573  -2.7478  -2.6375
    -2.4860  -2.4723  -2.4026  -2.3362  -2.1710  -2.1398  -2.1089  -2.0560
    -2.0153  -1.9676  -1.8697  -1.8063  -1.7974  -1.7117  -1.6551  -1.5258
    -1.4758  -1.4348  -1.3317  -1.2066  -1.1913  -1.1658  -1.1194  -1.0544
    -0.9506  -0.9202  -0.7979  -0.6721  -0.5036  -0.4123   0.3956   0.5829
     0.8656   1.2998   1.3973   1.5199   1.6852   1.7055   2.1180   2.1423
     2.3283   2.3738   2.4650   2.5402   2.5744   2.7484   3.0161   3.0359
     3.1536   3.1551   3.6464   3.6785

     the Fermi energy is     0.2221 ev

!    total energy              =   -9109.78214896 Ry
     total all-electron energy =     -9109.782149 Ry
     estimated scf accuracy    <          2.2E-09 Ry
     smearing contrib. (-TS)   =      -0.00011090 Ry
     internal energy E=F+TS    =   -9109.78203805 Ry

     The total energy is F=E-TS. E is the sum of the following terms:
     one-electron contribution =  -16932.36773109 Ry
     hartree contribution      =    8326.30233789 Ry
     xc contribution           =    -365.34306625 Ry
     ewald contribution        =    6129.37875622 Ry
     one-center paw contrib.   =   -6267.75233482 Ry

     convergence has been achieved in  29 iterations

     negative rho (up, down):  6.490E-02 0.000E+00

     Forces acting on atoms (cartesian axes, Ry/au):

     atom    1 type  1   force =     0.00742773    0.00000000   -0.01772493
     atom    2 type  1   force =    -0.00070372    0.00000000   -0.00099317
     atom    3 type  1   force =     0.01691830    0.00000000   -0.00899436
     atom    4 type  1   force =    -0.01480345    0.00000000   -0.00132658
     atom    5 type  2   force =    -0.02361452    0.00000000   -0.01017707
     atom    6 type  2   force =     0.01470608    0.00000000    0.00089056
     atom    7 type  2   force =     0.00221895    0.00000000   -0.00201619
     atom    8 type  2   force =    -0.04273070    0.00000000    0.01642883
     atom    9 type  2   force =     0.00101298    0.00000000   -0.00022742
     atom   10 type  2   force =     0.05405149    0.00000000   -0.02586659
     atom   11 type  3   force =    -0.03298064    0.00000000    0.00165124
     atom   12 type  3   force =     0.00157432    0.00000000   -0.00032885
     atom   13 type  3   force =    -0.00508767    0.00000000   -0.00052872
     atom   14 type  3   force =     0.04635465    0.00000000    0.00489944
     atom   15 type  3   force =     0.01099183    0.00000000    0.00080593
     atom   16 type  3   force =    -0.00969800    0.00000000    0.00492244
     atom   17 type  3   force =     0.00022705    0.00000000   -0.00007046
     atom   18 type  3   force =    -0.05915770    0.00000000    0.03671109
     atom   19 type  3   force =     0.03013823    0.00000000    0.00220950
     atom   20 type  3   force =     0.00315480    0.00000000   -0.00026468

     Total force =     0.129754     Total SCF correction =     0.000159


     Computing stress (Cartesian axis) and pressure


     negative rho (up, down):  6.490E-02 0.000E+00
          total   stress  (Ry/bohr**3)                   (kbar)     P=        7.73
   0.00014054   0.00000000  -0.00000898           20.67        0.00       -1.32
   0.00000000   0.00003793   0.00000000            0.00        5.58        0.00
  -0.00000898   0.00000000  -0.00002078           -1.32        0.00       -3.06

     Energy error            =      3.0E-01 Ry
     Gradient error          =      5.9E-02 Ry/Bohr

     number of scf cycles    =   2
     number of bfgs steps    =   1

     energy             old  =   -9109.4851292317 Ry
     energy             new  =   -9109.7821489551 Ry

     CASE: energy            _new < energy            _old

     new trust radius        =       0.0805961697 bohr
     new conv_thr            =       0.0000000059 Ry


ATOMIC_POSITIONS (angstrom)
Ta              15.1753009614        0.9149235643       12.5889079920
Ta               6.5768405000        2.7447696811       12.5913352483
Ta               2.2954928773        0.9149235643       12.4425269777
Ta              11.0804513515        2.7447696811       12.5878925959
Ni              12.8457929706        0.9149235643       11.7538038551
Ni               4.0511957465        2.7447696811       13.2725035026
Ni               4.7918871802        0.9149235643       11.7599825976
Ni              13.5744020086        2.7447696811       13.2891373642
Ni               8.8259403825        0.9149235643       12.3685801079
Ni               0.1719794081        2.7447696811       12.5549626709
Te              14.1638988695        2.7447696811       10.5304999753
Te               5.3930448963        0.9149235643       14.5010549963
Te              10.5933752931        0.9149235643       10.5193040818
Te               1.8478981782        2.7447696811       14.5211438632
Te               3.4495862901        2.7447696811       10.5361284556
Te              12.2599930491        0.9149235643       14.5043630828
Te               7.0617832731        0.9149235643       10.5193729583
Te              15.7343599848        2.7447696811       14.6553234535
Te               0.2074099698        0.9149235643       10.6628055313
Te               8.8279291726        2.7447696811       14.1986216896



     Writing config-only to output data dir /ddn/data/physics/eamoujaes/2D-Ta2Ni3Te5/ELASTIC/OUT/ta2ni3te5.save/ :
     XML data file
     NEW-OLD atomic charge density approx. for the potential

     negative rho (up, down):  6.495E-02 0.000E+00

     total cpu time spent up to now is     2368.8 secs

     Self-consistent Calculation

     iteration #  1     ecut=    60.00 Ry     beta= 0.20
     Davidson diagonalization with overlap
     ethr =  1.00E-06,  avg # of iterations =  8.6

     negative rho (up, down):  6.493E-02 0.000E+00

     total cpu time spent up to now is     2409.0 secs

     total energy              =   -9109.76315601 Ry
     estimated scf accuracy    <       0.09075120 Ry

     iteration #  2     ecut=    60.00 Ry     beta= 0.20
     Davidson diagonalization with overlap
     ethr =  4.13E-05,  avg # of iterations =  3.8

     negative rho (up, down):  6.494E-02 0.000E+00

     total cpu time spent up to now is     2446.2 secs

     total energy              =   -9109.73377462 Ry
     estimated scf accuracy    <       1.38000371 Ry

     iteration #  3     ecut=    60.00 Ry     beta= 0.20
     Davidson diagonalization with overlap
     ethr =  4.13E-05,  avg # of iterations =  2.7

     negative rho (up, down):  6.496E-02 0.000E+00

     total cpu time spent up to now is     2483.6 secs

     total energy              =   -9109.79558129 Ry
     estimated scf accuracy    <       0.06067725 Ry

     iteration #  4     ecut=    60.00 Ry     beta= 0.20
     Davidson diagonalization with overlap
     ethr =  2.76E-05,  avg # of iterations =  1.0

     negative rho (up, down):  6.496E-02 0.000E+00

     total cpu time spent up to now is     2520.2 secs

     total energy              =   -9109.79853995 Ry
     estimated scf accuracy    <       0.00355100 Ry

     iteration #  5     ecut=    60.00 Ry     beta= 0.20
     Davidson diagonalization with overlap
     ethr =  1.61E-06,  avg # of iterations =  3.1

     negative rho (up, down):  6.497E-02 0.000E+00

     total cpu time spent up to now is     2557.7 secs

     total energy              =   -9109.79859306 Ry
     estimated scf accuracy    <       0.00169001 Ry

     iteration #  6     ecut=    60.00 Ry     beta= 0.20
     Davidson diagonalization with overlap
     ethr =  7.68E-07,  avg # of iterations =  2.0

     negative rho (up, down):  6.498E-02 0.000E+00

     total cpu time spent up to now is     2594.8 secs

     total energy              =   -9109.79847406 Ry
     estimated scf accuracy    <       0.00176702 Ry

     iteration #  7     ecut=    60.00 Ry     beta= 0.20
     Davidson diagonalization with overlap
     ethr =  7.68E-07,  avg # of iterations =  1.1

     negative rho (up, down):  6.498E-02 0.000E+00

     total cpu time spent up to now is     2631.7 secs

     total energy              =   -9109.79832041 Ry
     estimated scf accuracy    <       0.00259955 Ry

     iteration #  8     ecut=    60.00 Ry     beta= 0.20
     Davidson diagonalization with overlap
     ethr =  7.68E-07,  avg # of iterations =  1.0

     negative rho (up, down):  6.499E-02 0.000E+00

     total cpu time spent up to now is     2668.8 secs

     total energy              =   -9109.79798856 Ry
     estimated scf accuracy    <       0.00193836 Ry

     iteration #  9     ecut=    60.00 Ry     beta= 0.20
     Davidson diagonalization with overlap
     ethr =  7.68E-07,  avg # of iterations =  1.0

     negative rho (up, down):  6.499E-02 0.000E+00

     total cpu time spent up to now is     2705.8 secs

     total energy              =   -9109.79798452 Ry
     estimated scf accuracy    <       0.00031035 Ry

     iteration # 10     ecut=    60.00 Ry     beta= 0.20
     Davidson diagonalization with overlap
     ethr =  1.41E-07,  avg # of iterations =  2.0

     negative rho (up, down):  6.499E-02 0.000E+00

     total cpu time spent up to now is     2743.4 secs

     total energy              =   -9109.79797644 Ry
     estimated scf accuracy    <       0.00006345 Ry

     iteration # 11     ecut=    60.00 Ry     beta= 0.20
     Davidson diagonalization with overlap
     ethr =  2.88E-08,  avg # of iterations =  2.1

     negative rho (up, down):  6.499E-02 0.000E+00

     total cpu time spent up to now is     2781.1 secs

     total energy              =   -9109.79797783 Ry
     estimated scf accuracy    <       0.00003099 Ry

     iteration # 12     ecut=    60.00 Ry     beta= 0.20
     Davidson diagonalization with overlap
     ethr =  1.41E-08,  avg # of iterations =  1.9

     negative rho (up, down):  6.499E-02 0.000E+00

     total cpu time spent up to now is     2818.1 secs

     total energy              =   -9109.79797192 Ry
     estimated scf accuracy    <       0.00004154 Ry

     iteration # 13     ecut=    60.00 Ry     beta= 0.20
     Davidson diagonalization with overlap
     ethr =  1.41E-08,  avg # of iterations =  2.0

     negative rho (up, down):  6.500E-02 0.000E+00

     total cpu time spent up to now is     2855.2 secs

     total energy              =   -9109.79797077 Ry
     estimated scf accuracy    <       0.00001103 Ry

     iteration # 14     ecut=    60.00 Ry     beta= 0.20
     Davidson diagonalization with overlap
     ethr =  5.01E-09,  avg # of iterations =  2.0

     negative rho (up, down):  6.500E-02 0.000E+00

     total cpu time spent up to now is     2892.1 secs

     total energy              =   -9109.79797194 Ry
     estimated scf accuracy    <       0.00000162 Ry

     iteration # 15     ecut=    60.00 Ry     beta= 0.20
     Davidson diagonalization with overlap
     ethr =  7.36E-10,  avg # of iterations =  2.6

     negative rho (up, down):  6.500E-02 0.000E+00

     total cpu time spent up to now is     2929.1 secs

     total energy              =   -9109.79797215 Ry
     estimated scf accuracy    <       0.00000103 Ry

     iteration # 16     ecut=    60.00 Ry     beta= 0.20
     Davidson diagonalization with overlap
     ethr =  4.67E-10,  avg # of iterations =  1.6

     negative rho (up, down):  6.500E-02 0.000E+00

     total cpu time spent up to now is     2966.0 secs

     total energy              =   -9109.79797211 Ry
     estimated scf accuracy    <       0.00000033 Ry

     iteration # 17     ecut=    60.00 Ry     beta= 0.20
     Davidson diagonalization with overlap
     ethr =  1.52E-10,  avg # of iterations =  2.0

     negative rho (up, down):  6.500E-02 0.000E+00

     total cpu time spent up to now is     3003.4 secs

     total energy              =   -9109.79797213 Ry
     estimated scf accuracy    <       0.00000027 Ry

     iteration # 18     ecut=    60.00 Ry     beta= 0.20
     Davidson diagonalization with overlap
     ethr =  1.23E-10,  avg # of iterations =  1.0

     negative rho (up, down):  6.500E-02 0.000E+00

     total cpu time spent up to now is     3040.1 secs

     total energy              =   -9109.79797216 Ry
     estimated scf accuracy    <       0.00000030 Ry

     iteration # 19     ecut=    60.00 Ry     beta= 0.20
     Davidson diagonalization with overlap
     ethr =  1.23E-10,  avg # of iterations =  1.0

     negative rho (up, down):  6.500E-02 0.000E+00

     total cpu time spent up to now is     3077.2 secs

     total energy              =   -9109.79797218 Ry
     estimated scf accuracy    <       0.00000009 Ry

     iteration # 20     ecut=    60.00 Ry     beta= 0.20
     Davidson diagonalization with overlap
     ethr =  4.11E-11,  avg # of iterations =  1.9

     negative rho (up, down):  6.500E-02 0.000E+00

     total cpu time spent up to now is     3114.3 secs

     total energy              =   -9109.79797218 Ry
     estimated scf accuracy    <          6.7E-09 Ry

     iteration # 21     ecut=    60.00 Ry     beta= 0.20
     Davidson diagonalization with overlap
     ethr =  3.05E-12,  avg # of iterations =  5.0

     negative rho (up, down):  6.500E-02 0.000E+00

     total cpu time spent up to now is     3151.9 secs

     total energy              =   -9109.79797218 Ry
     estimated scf accuracy    <       0.00000001 Ry

     iteration # 22     ecut=    60.00 Ry     beta= 0.20
     Davidson diagonalization with overlap
     ethr =  3.05E-12,  avg # of iterations =  2.0

     negative rho (up, down):  6.500E-02 0.000E+00

     total cpu time spent up to now is     3188.6 secs

     End of self-consistent calculation

          k = 0.0000 0.0000 0.0000 ( 82327 PWs)   bands (ev):

  -103.3510-103.2678-103.1622-103.1496-102.9869-102.7547 -68.4429 -68.4411
   -68.3511 -68.2695 -63.9007 -63.8380 -63.7792 -63.7340 -63.7301 -63.6339
   -63.6299 -63.5690 -63.5649 -63.5056 -63.4682 -63.4624 -63.4200 -63.4074
   -63.3408 -63.2599 -63.2179 -63.0317 -34.9401 -34.9388 -34.8780 -34.8766
   -34.8759 -34.8706 -34.8699 -34.8504 -34.8034 -34.7999 -34.7489 -34.7280
   -13.0269 -12.5182 -12.4858 -12.2515 -11.8933 -11.7725 -11.5800 -11.5620
[...]
     2.0849   2.1176   2.1478   2.3103   2.3875   2.6159   2.6751   2.8613
     2.9955   3.0434   3.9249   4.1367

          k = 0.0000 1.3882 0.0000 ( 82161 PWs)   bands (ev):

  -103.2599-103.2534-103.2421-103.2405-102.8526-102.8491 -68.3915 -68.3906
   -68.3897 -68.3891 -63.8305 -63.8236 -63.8148 -63.8126 -63.6517 -63.6479
   -63.6176 -63.6163 -63.5494 -63.5451 -63.5239 -63.5234 -63.3427 -63.3400
   -63.3111 -63.3075 -63.1497 -63.1455 -34.9091 -34.9084 -34.9073 -34.9064
   -34.8795 -34.8789 -34.8777 -34.8772 -34.8329 -34.8296 -34.8262 -34.8230
   -12.1115 -11.8256 -11.7747 -11.6281 -11.4856 -11.4245 -11.1553 -11.1030
   -11.0745 -10.9965  -5.7212  -5.3881  -5.3292  -5.2773  -4.9937  -4.9248
    -4.8723  -4.7601  -4.6077  -4.4774  -4.3556  -4.2645  -4.1671  -3.9369
    -3.8977  -3.8811  -3.8368  -3.6661  -3.6294  -3.4883  -3.3232  -3.2351
    -3.2156  -3.1248  -3.0039  -2.9165  -2.8767  -2.7631  -2.6241  -2.5340
    -2.4782  -2.4542  -2.3201  -2.2838  -2.0906  -2.0365  -1.9872  -1.9714
    -1.9670  -1.8701  -1.8289  -1.8111  -1.5936  -1.5791  -1.5255  -1.4321
    -1.3803  -1.3381  -1.2588  -1.1673  -0.9876  -0.9687  -0.9028  -0.7666
    -0.7271  -0.6578  -0.6415  -0.4425  -0.4223  -0.3752   0.6189   0.7109
     1.1296   1.1581   1.1592   1.3234   1.5161   1.5319   1.6628   1.7052
     2.0298   2.1491   2.2161   2.4513   2.4846   2.6548   2.7627   3.0040
     3.0469   3.2551   3.6801   3.7972

          k = 0.0000 1.8510 0.0000 ( 82005 PWs)   bands (ev):

  -103.2594-103.2526-103.2429-103.2409-102.8526-102.8491 -68.3910 -68.3902
   -68.3893 -68.3887 -63.8305 -63.8237 -63.8150 -63.8127 -63.6467 -63.6421
   -63.6258 -63.6253 -63.5440 -63.5390 -63.5257 -63.5254 -63.3427 -63.3400
   -63.3111 -63.3074 -63.1495 -63.1453 -34.9066 -34.9060 -34.9048 -34.9041
   -34.8979 -34.8973 -34.8959 -34.8954 -34.8299 -34.8281 -34.8238 -34.8220
   -11.6642 -11.5668 -11.3650 -11.3562 -11.3192 -11.2200 -11.0215 -11.0152
   -10.9055 -10.8851  -5.9461  -5.8713  -5.8300  -5.7712  -5.1328  -5.1079
    -4.9976  -4.8561  -4.7362  -4.5322  -4.3229  -4.2135  -4.1759  -3.9223
    -3.9139  -3.6705  -3.6136  -3.4889  -3.4737  -3.4692  -3.3407  -3.3109
    -3.2568  -3.1904  -3.1884  -3.0956  -2.8513  -2.7578  -2.7204  -2.6123
    -2.5367  -2.4357  -2.3891  -2.3778  -2.1320  -2.0622  -2.0331  -1.9828
    -1.9768  -1.9570  -1.8783  -1.8599  -1.7552  -1.6971  -1.6775  -1.5463
    -1.3741  -1.3355  -1.3298  -1.2950  -1.1216  -1.0647  -1.0498  -0.9459
    -0.8817  -0.7797  -0.7737  -0.5828  -0.5787  -0.5704   0.4751   0.5337
     1.0965   1.2284   1.3185   1.3288   1.5881   1.9089   2.0416   2.0606
     2.1394   2.1610   2.3813   2.3831   2.5759   2.8297   3.0023   3.0873
     3.1824   3.3426   3.4517   3.5915

          k = 0.0000-2.3137 0.0000 ( 81938 PWs)   bands (ev):

  -103.2593-103.2522-103.2432-103.2411-102.8526-102.8491 -68.3909 -68.3900
   -68.3891 -68.3886 -63.8306 -63.8237 -63.8150 -63.8128 -63.6436 -63.6371
   -63.6313 -63.6299 -63.5418 -63.5361 -63.5274 -63.5263 -63.3427 -63.3400
   -63.3111 -63.3075 -63.1493 -63.1451 -34.9056 -34.9052 -34.9048 -34.9043
   -34.9038 -34.9033 -34.9028 -34.9024 -34.8285 -34.8278 -34.8226 -34.8220
   -11.4603 -11.4557 -11.1732 -11.1699 -11.1483 -11.1439 -11.0642 -11.0630
   -10.8469 -10.8438  -6.0911  -6.0873  -6.0678  -6.0650  -5.3199  -5.3189
    -4.9916  -4.9905  -4.7090  -4.7048  -4.1172  -4.1148  -3.8619  -3.8595
    -3.7950  -3.7935  -3.4923  -3.4903  -3.3843  -3.3822  -3.3815  -3.3793
    -3.2562  -3.2553  -3.0485  -3.0450  -2.9007  -2.8987  -2.7580  -2.7547
    -2.4598  -2.4595  -2.3077  -2.3060  -2.1543  -2.1528  -2.0227  -2.0217
    -2.0086  -2.0052  -1.8211  -1.8162  -1.8055  -1.8054  -1.6630  -1.6609
    -1.3660  -1.3627  -1.2698  -1.2692  -1.1289  -1.1279  -1.1018  -1.0986
    -1.0173  -1.0147  -0.7665  -0.7657  -0.5582  -0.5553   0.4708   0.4723
     1.1295   1.1301   1.4108   1.4120   1.6136   1.6140   2.1064   2.1091
     2.3907   2.3913   2.5666   2.5702   2.6913   2.6923   3.0264   3.0310
     3.2171   3.2188   3.5141   3.5151

          k =-0.5000 0.0000 0.0000 ( 82326 PWs)   bands (ev):

  -103.2610-103.2551-103.2405-103.2394-102.8526-102.8491 -68.3926 -68.3917
   -68.3907 -68.3902 -63.8303 -63.8236 -63.8143 -63.8122 -63.6583 -63.6549
   -63.5968 -63.5955 -63.5663 -63.5622 -63.5215 -63.5204 -63.3427 -63.3400
   -63.3112 -63.3075 -63.1496 -63.1454 -34.9154 -34.9149 -34.9133 -34.9128
   -34.8383 -34.8376 -34.8311 -34.8305 -34.8295 -34.8291 -34.8283 -34.8278
   -12.7866 -12.7852 -12.0910 -12.0898 -11.9868 -11.9827 -11.5615 -11.5577
   -11.3020 -11.2998  -6.0478  -6.0458  -5.6284  -5.6281  -5.2866  -5.2819
    -4.9023  -4.8997  -4.5061  -4.5041  -3.7948  -3.7918  -3.6601  -3.6568
    -3.5786  -3.5766  -3.3755  -3.3744  -3.1704  -3.1695  -2.9498  -2.9436
    -2.7386  -2.7346  -2.4784  -2.4757  -2.4733  -2.4720  -2.2287  -2.2257
    -2.0723  -2.0697  -1.9175  -1.9119  -1.9023  -1.8999  -1.6930  -1.6915
    -1.5445  -1.5408  -1.3701  -1.3691  -1.2197  -1.2186  -1.0098  -1.0066
    -1.0011  -0.9998  -0.9731  -0.9701  -0.7913  -0.7897  -0.4812  -0.4794
    -0.4172  -0.4147  -0.1302  -0.1290   0.0101   0.0110   0.2665   0.2670
     1.2034   1.2063   1.2190   1.2224   1.5468   1.5502   1.7051   1.7055
     2.1879   2.1899   2.5016   2.5033   2.6656   2.6674   3.4067   3.4088
     3.4200   3.4213   3.7264   3.7284

          k =-0.5000 0.4627 0.0000 ( 82290 PWs)   bands (ev):

  -103.2608-103.2548-103.2407-103.2396-102.8526-102.8491 -68.3924 -68.3916
   -68.3905 -68.3901 -63.8303 -63.8236 -63.8144 -63.8122 -63.6576 -63.6541
   -63.6005 -63.5991 -63.5631 -63.5590 -63.5218 -63.5207 -63.3427 -63.3400
   -63.3112 -63.3075 -63.1496 -63.1454 -34.9144 -34.9140 -34.9124 -34.9119
   -34.8383 -34.8380 -34.8372 -34.8370 -34.8361 -34.8360 -34.8277 -34.8272
   -12.6929 -12.6915 -12.0110 -12.0097 -11.9365 -11.9321 -11.5098 -11.5060
   -11.2584 -11.2562  -5.9559  -5.9540  -5.5379  -5.5376  -5.2048  -5.2001
    -4.8381  -4.8360  -4.4524  -4.4504  -3.8879  -3.8852  -3.7450  -3.7431
    -3.5539  -3.5514  -3.3555  -3.3543  -3.2768  -3.2759  -2.9085  -2.9027
    -2.8502  -2.8470  -2.7236  -2.7195  -2.4860  -2.4846  -2.2638  -2.2607
    -2.1251  -2.1231  -2.0180  -2.0167  -1.8830  -1.8816  -1.7704  -1.7683
    -1.6567  -1.6534  -1.4651  -1.4627  -1.4178  -1.4161  -1.2720  -1.2711
    -1.0791  -1.0772  -0.9705  -0.9700  -0.7755  -0.7739  -0.5631  -0.5615
    -0.3829  -0.3820  -0.2981  -0.2966   0.1044   0.1046   0.4398   0.4410
     0.9382   0.9386   1.3594   1.3626   1.4895   1.4940   1.6857   1.6860
     2.0378   2.0393   2.3722   2.3746   2.6028   2.6038   2.9945   2.9948
     3.1371   3.1393   3.6835   3.6845

          k =-0.5000 0.9255 0.0000 ( 82230 PWs)   bands (ev):

  -103.2604-103.2542-103.2413-103.2400-102.8526-102.8491 -68.3920 -68.3911
   -68.3901 -68.3897 -63.8304 -63.8236 -63.8146 -63.8124 -63.6554 -63.6519
   -63.6085 -63.6070 -63.5563 -63.5523 -63.5226 -63.5217 -63.3427 -63.3400
   -63.3111 -63.3075 -63.1497 -63.1455 -34.9120 -34.9115 -34.9101 -34.9095
   -34.8567 -34.8561 -34.8551 -34.8547 -34.8349 -34.8343 -34.8263 -34.8257
   -12.4250 -12.4234 -11.8021 -11.8005 -11.7815 -11.7788 -11.3717 -11.3682
   -11.1399 -11.1375  -5.7221  -5.7202  -5.3018  -5.3015  -5.0164  -5.0121
    -4.7669  -4.7667  -4.3489  -4.3463  -4.1140  -4.1110  -3.9738  -3.9719
    -3.5823  -3.5811  -3.5223  -3.5200  -3.4654  -3.4639  -3.1436  -3.1382
    -3.1173  -3.1166  -2.8503  -2.8482  -2.6027  -2.5991  -2.5254  -2.5224
    -2.3084  -2.3078  -2.2484  -2.2478  -2.0115  -2.0103  -1.9264  -1.9255
    -1.7626  -1.7611  -1.6944  -1.6912  -1.4815  -1.4778  -1.3583  -1.3575
    -1.1811  -1.1784  -1.1383  -1.1365  -0.9185  -0.9173  -0.7347  -0.7312
    -0.5546  -0.5533  -0.2710  -0.2697  -0.1176  -0.1168   0.6938   0.6950
     0.9853   0.9874   1.2593   1.2597   1.4264   1.4307   1.6871   1.6899
     1.8245   1.8253   2.2142   2.2179   2.5986   2.5990   2.7589   2.7609
     2.9465   2.9476   4.0135   4.0140

          k =-0.5000 1.3882 0.0000 ( 82170 PWs)   bands (ev):

  -103.2599-103.2534-103.2421-103.2405-102.8526-102.8491 -68.3915 -68.3906
   -68.3897 -68.3891 -63.8305 -63.8236 -63.8148 -63.8126 -63.6517 -63.6479
   -63.6176 -63.6163 -63.5494 -63.5451 -63.5240 -63.5235 -63.3427 -63.3400
   -63.3112 -63.3075 -63.1497 -63.1455 -34.9090 -34.9085 -34.9071 -34.9065
   -34.8795 -34.8789 -34.8777 -34.8773 -34.8319 -34.8313 -34.8245 -34.8239
   -12.0287 -12.0270 -11.6048 -11.6008 -11.4769 -11.4753 -11.1959 -11.1925
   -10.9898 -10.9872  -5.5902  -5.5887  -5.1965  -5.1952  -5.0649  -5.0644
    -4.8788  -4.8762  -4.4619  -4.4598  -4.3576  -4.3558  -4.0161  -4.0138
    -3.8823  -3.8802  -3.7175  -3.7162  -3.4761  -3.4738  -3.4070  -3.4045
    -3.0738  -3.0723  -2.9389  -2.9340  -2.8628  -2.8604  -2.6601  -2.6590
    -2.4381  -2.4368  -2.3106  -2.3094  -2.0997  -2.0978  -1.9882  -1.9866
    -1.9531  -1.9512  -1.8173  -1.8160  -1.5049  -1.4984  -1.4644  -1.4615
    -1.3551  -1.3544  -1.2780  -1.2755  -0.9345  -0.9324  -0.8979  -0.8962
    -0.6996  -0.6985  -0.5042  -0.5028  -0.3886  -0.3878   0.6329   0.6334
     1.1699   1.1708   1.3655   1.3664   1.5390   1.5396   1.7053   1.7061
     1.9444   1.9492   2.2229   2.2275   2.7320   2.7333   2.8598   2.8606
     3.0432   3.0442   3.8254   3.8279

          k =-0.5000 1.8510 0.0000 ( 82020 PWs)   bands (ev):

  -103.2594-103.2526-103.2429-103.2409-102.8526-102.8491 -68.3910 -68.3902
   -68.3893 -68.3887 -63.8306 -63.8237 -63.8150 -63.8128 -63.6468 -63.6421
   -63.6258 -63.6253 -63.5439 -63.5389 -63.5257 -63.5254 -63.3428 -63.3401
   -63.3110 -63.3074 -63.1495 -63.1453 -34.9066 -34.9061 -34.9047 -34.9041
   -34.8979 -34.8973 -34.8959 -34.8954 -34.8295 -34.8288 -34.8231 -34.8225
   -11.6203 -11.6175 -11.3940 -11.3903 -11.2129 -11.2100 -11.0540 -11.0503
   -10.8863 -10.8835  -5.9751  -5.9732  -5.6940  -5.6892  -5.1783  -5.1760
    -4.9443  -4.9432  -4.6325  -4.6290  -4.2756  -4.2743  -4.0690  -4.0665
    -3.7975  -3.7963  -3.5810  -3.5799  -3.4221  -3.4194  -3.2958  -3.2949
    -3.2207  -3.2195  -3.0110  -3.0082  -2.9048  -2.9009  -2.6476  -2.6456
    -2.5734  -2.5714  -2.2863  -2.2847  -2.1697  -2.1685  -2.0420  -2.0404
    -1.9761  -1.9746  -1.8977  -1.8965  -1.6526  -1.6495  -1.5655  -1.5573
    -1.3936  -1.3925  -1.3285  -1.3266  -1.0917  -1.0907  -1.0159  -1.0137
    -0.8481  -0.8472  -0.7199  -0.7166  -0.5199  -0.5181   0.5026   0.5035
     1.1193   1.1199   1.5845   1.5865   1.6291   1.6302   2.0847   2.0851
     2.0960   2.1002   2.3257   2.3292   2.6321   2.6332   3.0070   3.0089
     3.2958   3.2987   3.5226   3.5251

          k =-0.5000-2.3137 0.0000 ( 81920 PWs)   bands (ev):

  -103.2593-103.2522-103.2432-103.2411-102.8526-102.8491 -68.3909 -68.3900
   -68.3891 -68.3886 -63.8306 -63.8237 -63.8151 -63.8128 -63.6436 -63.6370
   -63.6312 -63.6298 -63.5418 -63.5360 -63.5273 -63.5263 -63.3427 -63.3401
   -63.3111 -63.3074 -63.1493 -63.1451 -34.9056 -34.9051 -34.9050 -34.9044
   -34.9037 -34.9031 -34.9028 -34.9024 -34.8285 -34.8278 -34.8226 -34.8220
   -11.4601 -11.4555 -11.1702 -11.1668 -11.1499 -11.1454 -11.0677 -11.0665
   -10.8449 -10.8418  -6.2120  -6.2096  -5.9082  -5.9028  -5.3533  -5.3510
    -4.9597  -4.9596  -4.7686  -4.7635  -4.0627  -4.0599  -4.0075  -4.0056
    -3.6274  -3.6264  -3.5440  -3.5417  -3.4817  -3.4798  -3.3282  -3.3269
    -3.2225  -3.2219  -3.1022  -3.1020  -2.7714  -2.7675  -2.7577  -2.7550
    -2.4626  -2.4596  -2.3125  -2.3112  -2.1389  -2.1386  -2.1323  -2.1314
    -2.0274  -2.0245  -1.8112  -1.8107  -1.7381  -1.7365  -1.6068  -1.5983
    -1.4596  -1.4591  -1.2610  -1.2600  -1.1824  -1.1809  -1.0651  -1.0613
    -1.0217  -1.0185  -0.7660  -0.7658  -0.5507  -0.5478   0.4774   0.4789
     1.1164   1.1171   1.5541   1.5566   1.5584   1.5606   2.1462   2.1507
     2.3363   2.3371   2.4961   2.4979   2.6818   2.6821   2.9772   2.9789
     3.1402   3.1425   3.7383   3.7427

     the Fermi energy is     0.1893 ev

!    total energy              =   -9109.84084511 Ry
     total all-electron energy =     -9109.840845 Ry
     estimated scf accuracy    <          6.1E-11 Ry
     smearing contrib. (-TS)   =      -0.00002013 Ry
     internal energy E=F+TS    =   -9109.84082498 Ry

     The total energy is F=E-TS. E is the sum of the following terms:
     one-electron contribution =  -16886.10503447 Ry
     hartree contribution      =    8303.14006294 Ry
     xc contribution           =    -365.23732888 Ry
     ewald contribution        =    6106.12563701 Ry
     one-center paw contrib.   =   -6267.76416159 Ry

     convergence has been achieved in  18 iterations

     negative rho (up, down):  6.507E-02 0.000E+00

     Forces acting on atoms (cartesian axes, Ry/au):

     atom    1 type  1   force =    -0.00019646    0.00000000    0.00018136
     atom    2 type  1   force =    -0.00025557    0.00000000    0.00003874
     atom    3 type  1   force =     0.00019128    0.00000000    0.00062601
     atom    4 type  1   force =    -0.00048564    0.00000000    0.00006994
     atom    5 type  2   force =    -0.00048646    0.00000000   -0.00024084
     atom    6 type  2   force =    -0.00012560    0.00000000    0.00003989
     atom    7 type  2   force =    -0.00015347    0.00000000   -0.00016146
     atom    8 type  2   force =     0.00015966    0.00000000    0.00023118
     atom    9 type  2   force =    -0.00023743    0.00000000   -0.00019540
     atom   10 type  2   force =     0.00017114    0.00000000    0.00055761
     atom   11 type  3   force =     0.00052699    0.00000000   -0.00007394
     atom   12 type  3   force =     0.00002214    0.00000000   -0.00015177
     atom   13 type  3   force =     0.00012152    0.00000000   -0.00024102
     atom   14 type  3   force =     0.00072946    0.00000000    0.00013091
     atom   15 type  3   force =    -0.00039999    0.00000000   -0.00031051
     atom   16 type  3   force =     0.00007964    0.00000000   -0.00030934
     atom   17 type  3   force =    -0.00020231    0.00000000    0.00022353
     atom   18 type  3   force =    -0.00093786    0.00000000   -0.00019163
     atom   19 type  3   force =     0.00072062    0.00000000    0.00000118
     atom   20 type  3   force =     0.00075832    0.00000000   -0.00022443

     Total force =     0.002263     Total SCF correction =     0.000046


     Computing stress (Cartesian axis) and pressure


     negative rho (up, down):  6.507E-02 0.000E+00
          total   stress  (Ry/bohr**3)                   (kbar)     P=        5.06
   0.00012072   0.00000000   0.00000008           17.76        0.00        0.01
   0.00000000   0.00002283   0.00000000            0.00        3.36        0.00
   0.00000008   0.00000000  -0.00004040            0.01        0.00       -5.94

     Energy error            =      1.5E-05 Ry
     Gradient error          =      9.4E-04 Ry/Bohr

     bfgs converged in  20 scf cycles and  19 bfgs steps
     (criteria: energy <  1.0E-04 Ry, force <  1.0E-03 Ry/Bohr)

     End of BFGS Geometry Optimization

     Final energy             =   -9109.8408451116 Ry

     File /ddn/data/physics/eamoujaes/2D-Ta2Ni3Te5/ELASTIC/OUT/ta2ni3te5.bfgs deleted, as requested
Begin final coordinates

ATOMIC_POSITIONS (angstrom)
Ta              15.1244951074        0.9149235643       12.4937392905
Ta               6.6569409009        2.7447696811       12.5419820611
Ta               2.4628450598        0.9149235643       12.4668346194
Ta              10.9327349964        2.7447696811       12.5669352822
Ni              12.6844045973        0.9149235643       11.7691637003
Ni               4.2156387614        2.7447696811       13.2703412689
Ni               4.9059723370        0.9149235643       11.7333386074
Ni              13.3718418692        2.7447696811       13.3067760968
Ni               8.7925678675        0.9149235643       12.3975913009
Ni               0.3235439214        2.7447696811       12.6331567689
Te              13.9800748040        2.7447696811       10.5418212854
Te               5.5157426069        0.9149235643       14.4959669662
Te              10.4854361779        0.9149235643       10.4788882973
Te               2.0138298460        2.7447696811       14.5548895156
Te               3.5992759252        2.7447696811       10.5120148970
Te              12.0633250121        0.9149235643       14.5276639692
Te               7.1151360785        0.9149235643       10.4575424150
Te              15.5853995799        2.7447696811       14.5770822480
Te               0.3152458153        0.9149235643       10.7577100170
Te               8.7841110993        2.7447696811       14.2748123927
End final coordinates



     Writing all to output data dir /ddn/data/physics/eamoujaes/2D-Ta2Ni3Te5/ELASTIC/OUT/ta2ni3te5.save/ :
     XML data file, charge density, pseudopotentials, collected wavefunctions
 
     init_run     :     50.52s CPU     62.81s WALL (       1 calls)
     electrons    :  12671.71s CPU  16405.14s WALL (      20 calls)
     update_pot   :    516.17s CPU    662.04s WALL (      19 calls)
     forces       :     34.52s CPU     43.15s WALL (      20 calls)
     stress       :     62.25s CPU     95.21s WALL (      20 calls)

     Called by init_run:
     wfcinit      :      5.38s CPU      6.93s WALL (       1 calls)
     potinit      :     40.64s CPU     50.11s WALL (       1 calls)
     hinit0       :      2.58s CPU      3.00s WALL (       1 calls)

     Called by electrons:
     c_bands      :    821.09s CPU   1186.33s WALL (     436 calls)
     sum_band     :    366.87s CPU    458.52s WALL (     436 calls)
     v_of_rho     :    152.30s CPU    204.33s WALL (     450 calls)
     newd         :     31.71s CPU     50.71s WALL (     450 calls)
                                       50.70s GPU  (     450 calls)
     PAW_pot      :  12200.11s CPU  15646.34s WALL (     469 calls)
     mix_rho      :     46.77s CPU     89.01s WALL (     436 calls)

     Called by c_bands:
     init_us_2    :     80.49s CPU    100.51s WALL (   11184 calls)
     init_us_2:cp :     67.42s CPU     85.35s WALL (     228 calls)
     init_us_2:gp :     12.80s CPU     14.86s WALL (   10956 calls)
     cegterg      :    463.35s CPU    777.12s WALL (    5232 calls)

     Called by *egterg:
     cdiaghg      :     45.02s CPU     70.83s WALL (   17404 calls)
                                       70.73s GPU  (   17404 calls)
     h_psi        :    325.03s CPU    553.03s WALL (   17716 calls)
                                      551.62s GPU  (   17716 calls)
     s_psi        :      8.12s CPU     11.01s WALL (   17716 calls)
     g_psi        :      0.05s CPU      5.03s WALL (   12472 calls)
                                        4.94s GPU  (   12472 calls)

     Called by h_psi:
     h_psi:calbec :      0.58s CPU     22.79s WALL (   17716 calls)
                                       22.61s GPU  (   17716 calls)
     vloc_psi     :    289.18s CPU    495.47s WALL (   17716 calls)
                                      495.37s GPU  (   17716 calls)
     add_vuspsi   :      6.04s CPU     28.97s WALL (   17716 calls)
                                       28.78s GPU  (   17716 calls)

     General routines
     calbec       :    184.21s CPU    320.71s WALL (   24376 calls)
     fft          :     38.98s CPU     41.20s WALL (    6335 calls)
                                        2.19s GPU  (    5885 calls)
     ffts         :     11.08s CPU     11.17s WALL (     886 calls)
                                        0.05s GPU  (     436 calls)
     fftw         :      1.96s CPU    436.67s WALL (  267364 calls)
                                      433.46s GPU  (  267364 calls)
     interpolate  :     57.15s CPU     60.91s WALL (     450 calls)
 
     Parallel routines
 
     PWSCF        :      3h54m CPU      5h 5m WALL

 
   This run was terminated on:  15:14:50  28Jul2024            

=------------------------------------------------------------------------------=
   JOB DONE.
=------------------------------------------------------------------------------=
