
     Program PWSCF v.7.3 starts on 28Jul2024 at 15:15: 0 

     This program is part of the open-source Quantum ESPRESSO suite
     for quantum simulation of materials; please cite
         "P. Giannozzi et al., J. Phys.:Condens. Matter 21 395502 (2009);
         "P. Giannozzi et al., J. Phys.:Condens. Matter 29 465901 (2017);
         "P. Giannozzi et al., J. Chem. Phys. 152 154105 (2020);
          URL http://www.quantum-espresso.org", 
     in publications or presentations arising from this work. More details at
     http://www.quantum-espresso.org/quote

     Parallel version (MPI & OpenMP), running on      32 processor cores
     Number of MPI processes:                 1
     Threads/MPI process:                    32

     MPI processes distributed on     1 nodes
     354230 MiB available memory on the printing compute node when the environment starts
 
     Waiting for input...
     Reading input from standard input
Warning: card &CELL ignored
Warning: card CELL_DYNAMICS='BFGS' ignored
Warning: card PRESS=0.0 ignored
Warning: card CELL_DOFREE='2DXY' ignored
Warning: card / ignored

     Current dimensions of program PWSCF are:
     Max number of different atomic species (ntypx) = 10
     Max number of k-points (npk) =  40000
     Max angular momentum in pseudopotentials (lmaxx) =  4
read_pp_mesh; mismatch in mesh size, discarding the one in header
read_pp_mesh; mismatch in mesh size, discarding the one in header
read_pp_mesh; mismatch in mesh size, discarding the one in header
     Message from routine setup:
     using ibrav=0 with symmetry is DISCOURAGED, use correct ibrav instead
 
     Subspace diagonalization in iterative solution of the eigenvalue problem:
     a serial algorithm will be used

 
     G-vector sticks info
     --------------------
     sticks:   dense  smooth     PW     G-vecs:    dense   smooth      PW
     Sum        8635    4319   1203              1897827   670835   99685
 
     Using Slab Decomposition
 


     bravais-lattice index     =            0
     lattice parameter (alat)  =      32.6690  a.u.
     unit-cell volume          =   10688.9830 (a.u.)^3
     number of atoms/cell      =           20
     number of atomic types    =            3
     number of electrons       =       220.00
     number of Kohn-Sham states=          132
     kinetic-energy cutoff     =      60.0000  Ry
     charge density cutoff     =     480.0000  Ry
     scf convergence threshold =      1.0E-08
     mixing beta               =       0.2000
     number of iterations used =            8  plain     mixing
     energy convergence thresh.=      1.0E-04
     force convergence thresh. =      1.0E-03
     Exchange-correlation= SLA PW PBX PBC
                           (   1   4   3   4   0   0   0)
     nstep                     =         2000


     GPU acceleration is ACTIVE.  1 visible GPUs per MPI rank
     GPU-aware MPI enabled


     celldm(1)=  32.669018  celldm(2)=   0.000000  celldm(3)=   0.000000
     celldm(4)=   0.000000  celldm(5)=   0.000000  celldm(6)=   0.000000

     crystal axes: (cart. coord. in units of alat)
               a(1) = (   1.000000   0.000000   0.000000 )  
               a(2) = (   0.000000   0.211693   0.000000 )  
               a(3) = (   0.000000   0.000000   1.448174 )  

     reciprocal axes: (cart. coord. in units 2 pi/alat)
               b(1) = (  1.000000  0.000000  0.000000 )  
               b(2) = (  0.000000  4.723813  0.000000 )  
               b(3) = (  0.000000  0.000000  0.690525 )  


     PseudoPot. # 1 for Ta read from file:
     /ddn/data/physics/eamoujaes/PSEUDO-CREATED/Ta.upf
     MD5 check sum: d865b2c2c09566b116f2b8decb2c153d
     Pseudo is Projector augmented-wave + core cor, Zval = 13.0
     Generated using ATOMPAW code
     Shape of augmentation charge: SINC**2
     Using radial grid of 2342 points,  6 beta functions with: 
                l(1) =   0
                l(2) =   0
                l(3) =   1
                l(4) =   1
                l(5) =   2
                l(6) =   2
     Q(r) pseudized with 0 coefficients 


     PseudoPot. # 2 for Ni read from file:
     /ddn/data/physics/eamoujaes/PSEUDO-CREATED/Ni.upf
     MD5 check sum: 85a2a5d9d38f4289a1cc30d5adb66a03
     Pseudo is Projector augmented-wave + core cor, Zval = 18.0
     Generated using ATOMPAW code
     Shape of augmentation charge: SINC**2
     Using radial grid of 2342 points,  6 beta functions with: 
                l(1) =   0
                l(2) =   0
                l(3) =   1
                l(4) =   1
                l(5) =   2
                l(6) =   2
     Q(r) pseudized with 0 coefficients 


     PseudoPot. # 3 for Te read from file:
     /ddn/data/physics/eamoujaes/PSEUDO-CREATED/Te.upf
     MD5 check sum: 8d958f193a7511a138982c2e72838810
     Pseudo is Projector augmented-wave + core cor, Zval =  6.0
     Generated using ATOMPAW code
     Shape of augmentation charge: SINC**2
     Using radial grid of 2342 points,  4 beta functions with: 
                l(1) =   0
                l(2) =   0
                l(3) =   1
                l(4) =   1
     Q(r) pseudized with 0 coefficients 


     atomic species   valence    mass     pseudopotential
     Ta               13.00   180.94790     Ta( 1.00)
     Ni               18.00    58.69340     Ni( 1.00)
     Te                6.00   127.60000     Te( 1.00)

      2 Sym. Ops. (no inversion) found ( 1 have fractional translation)



   Cartesian axes

     site n.     atom                  positions (alat units)
         1        Ta     tau(   1) = (   0.8903348   0.0529234   0.7198089  )
         2        Ta     tau(   2) = (   0.3801287   0.1587701   0.7283789  )
         3        Ta     tau(   3) = (   0.1310270   0.0529234   0.7197988  )
         4        Ta     tau(   4) = (   0.6412336   0.1587701   0.7283882  )
         5        Ni     tau(   5) = (   0.7441365   0.0529234   0.6803502  )
         6        Ni     tau(   6) = (   0.2339293   0.1587701   0.7678375  )
         7        Ni     tau(   7) = (   0.2772183   0.0529234   0.6803347  )
         8        Ni     tau(   8) = (   0.7874246   0.1587701   0.7678523  )
         9        Ni     tau(   9) = (   0.5106721   0.0529234   0.7154338  )
        10        Ni     tau(  10) = (   0.0004672   0.1587701   0.7327528  )
        11        Te     tau(  11) = (   0.8221477   0.1587701   0.6094077  )
        12        Te     tau(  12) = (   0.3119398   0.0529234   0.8387797  )
        13        Te     tau(  13) = (   0.6128885   0.0529234   0.6084866  )
        14        Te     tau(  14) = (   0.1026828   0.1587701   0.8397008  )
        15        Te     tau(  15) = (   0.1991988   0.1587701   0.6093947  )
        16        Te     tau(  16) = (   0.7094055   0.0529234   0.8387925  )
        17        Te     tau(  17) = (   0.4084765   0.0529234   0.6084772  )
        18        Te     tau(  18) = (   0.9186822   0.1587701   0.8397107  )
        19        Te     tau(  19) = (   0.0004800   0.0529234   0.6268977  )
        20        Te     tau(  20) = (   0.5106844   0.1587701   0.8212878  )

     number of k points=    12  Gaussian smearing, width (Ry)=  0.0020
                       cart. coord. in units 2pi/alat
        k(    1) = (   0.0000000   0.0000000   0.0000000), wk =   0.1000000
        k(    2) = (   0.0000000   0.4723813   0.0000000), wk =   0.2000000
        k(    3) = (   0.0000000   0.9447625   0.0000000), wk =   0.2000000
        k(    4) = (   0.0000000   1.4171438   0.0000000), wk =   0.2000000
        k(    5) = (   0.0000000   1.8895250   0.0000000), wk =   0.2000000
        k(    6) = (   0.0000000  -2.3619063   0.0000000), wk =   0.1000000
        k(    7) = (  -0.5000000   0.0000000   0.0000000), wk =   0.1000000
        k(    8) = (  -0.5000000   0.4723813   0.0000000), wk =   0.2000000
        k(    9) = (  -0.5000000   0.9447625   0.0000000), wk =   0.2000000
        k(   10) = (  -0.5000000   1.4171438   0.0000000), wk =   0.2000000
        k(   11) = (  -0.5000000   1.8895250   0.0000000), wk =   0.2000000
        k(   12) = (  -0.5000000  -2.3619063   0.0000000), wk =   0.1000000

     Dense  grid:  1897827 G-vectors     FFT dimensions: ( 240,  50, 360)

     Smooth grid:   670835 G-vectors     FFT dimensions: ( 162,  36, 240)

     Estimated max dynamical RAM per process >       9.71 GB

     Initial potential from superposition of free atoms

     starting charge     219.9927, renormalised to     220.0000

     negative rho (up, down):  5.069E-02 0.000E+00
     Starting wfcs are  260 randomized atomic wfcs
     Checking if some PAW data can be deallocated... 

     total cpu time spent up to now is       65.9 secs

     Self-consistent Calculation

     iteration #  1     ecut=    60.00 Ry     beta= 0.20
     Davidson diagonalization with overlap
     ethr =  1.00E-02,  avg # of iterations =  2.9

     negative rho (up, down):  5.123E-02 0.000E+00

     total cpu time spent up to now is      103.2 secs

     total energy              =   -9107.90133528 Ry
     estimated scf accuracy    <       7.76007051 Ry

     iteration #  2     ecut=    60.00 Ry     beta= 0.20
     Davidson diagonalization with overlap
     ethr =  3.53E-03,  avg # of iterations =  2.7

     negative rho (up, down):  5.253E-02 0.000E+00

     total cpu time spent up to now is      140.0 secs

     total energy              =   -9107.91958062 Ry
     estimated scf accuracy    <      15.68919045 Ry

     iteration #  3     ecut=    60.00 Ry     beta= 0.20
     Davidson diagonalization with overlap
     ethr =  3.53E-03,  avg # of iterations =  1.8

     negative rho (up, down):  5.339E-02 0.000E+00

     total cpu time spent up to now is      176.9 secs

     total energy              =   -9109.59345669 Ry
     estimated scf accuracy    <       5.78329191 Ry

     iteration #  4     ecut=    60.00 Ry     beta= 0.20
     Davidson diagonalization with overlap
     ethr =  2.63E-03,  avg # of iterations =  1.0

     negative rho (up, down):  5.459E-02 0.000E+00

     total cpu time spent up to now is      213.3 secs

     total energy              =   -9109.87010803 Ry
     estimated scf accuracy    <       1.08299614 Ry

     iteration #  5     ecut=    60.00 Ry     beta= 0.20
     Davidson diagonalization with overlap
     ethr =  4.92E-04,  avg # of iterations =  1.3

     negative rho (up, down):  5.625E-02 0.000E+00

     total cpu time spent up to now is      250.0 secs

     total energy              =   -9109.82173439 Ry
     estimated scf accuracy    <       0.66101456 Ry

     iteration #  6     ecut=    60.00 Ry     beta= 0.20
     Davidson diagonalization with overlap
     ethr =  3.00E-04,  avg # of iterations =  1.4

     negative rho (up, down):  6.124E-02 0.000E+00

     total cpu time spent up to now is      286.6 secs

     total energy              =   -9109.74309154 Ry
     estimated scf accuracy    <       0.34410314 Ry

     iteration #  7     ecut=    60.00 Ry     beta= 0.20
     Davidson diagonalization with overlap
     ethr =  1.56E-04,  avg # of iterations =  6.7

     negative rho (up, down):  6.208E-02 0.000E+00

     total cpu time spent up to now is      324.6 secs

     total energy              =   -9109.81619834 Ry
     estimated scf accuracy    <       0.65020138 Ry

     iteration #  8     ecut=    60.00 Ry     beta= 0.20
     Davidson diagonalization with overlap
     ethr =  1.56E-04,  avg # of iterations =  1.0

     negative rho (up, down):  6.213E-02 0.000E+00

     total cpu time spent up to now is      361.1 secs

     total energy              =   -9109.79632269 Ry
     estimated scf accuracy    <       0.29257819 Ry

     iteration #  9     ecut=    60.00 Ry     beta= 0.20
     Davidson diagonalization with overlap
     ethr =  1.33E-04,  avg # of iterations =  1.0

     negative rho (up, down):  6.260E-02 0.000E+00

     total cpu time spent up to now is      397.9 secs

     total energy              =   -9109.80194986 Ry
     estimated scf accuracy    <       0.03338452 Ry

     iteration # 10     ecut=    60.00 Ry     beta= 0.20
     Davidson diagonalization with overlap
     ethr =  1.52E-05,  avg # of iterations =  8.8

     negative rho (up, down):  6.370E-02 0.000E+00

     total cpu time spent up to now is      435.7 secs

     total energy              =   -9109.80548247 Ry
     estimated scf accuracy    <       0.00891574 Ry

     iteration # 11     ecut=    60.00 Ry     beta= 0.20
     Davidson diagonalization with overlap
     c_bands:  1 eigenvalues not converged
     ethr =  4.05E-06,  avg # of iterations =  6.2

     negative rho (up, down):  6.504E-02 0.000E+00

     total cpu time spent up to now is      473.1 secs

     total energy              =   -9109.80531662 Ry
     estimated scf accuracy    <       0.00399291 Ry

     iteration # 12     ecut=    60.00 Ry     beta= 0.20
     Davidson diagonalization with overlap
     c_bands:  1 eigenvalues not converged
     ethr =  1.81E-06,  avg # of iterations =  6.7

     negative rho (up, down):  6.548E-02 0.000E+00

     total cpu time spent up to now is      510.6 secs

     total energy              =   -9109.80561130 Ry
     estimated scf accuracy    <       0.00185949 Ry

     iteration # 13     ecut=    60.00 Ry     beta= 0.20
     Davidson diagonalization with overlap
     ethr =  8.45E-07,  avg # of iterations =  1.1

     negative rho (up, down):  6.565E-02 0.000E+00

     total cpu time spent up to now is      547.2 secs

     total energy              =   -9109.80571895 Ry
     estimated scf accuracy    <       0.00047700 Ry

     iteration # 14     ecut=    60.00 Ry     beta= 0.20
     Davidson diagonalization with overlap
     ethr =  2.17E-07,  avg # of iterations =  1.3

     negative rho (up, down):  6.580E-02 0.000E+00

     total cpu time spent up to now is      583.9 secs

     total energy              =   -9109.80574632 Ry
     estimated scf accuracy    <       0.00008006 Ry

     iteration # 15     ecut=    60.00 Ry     beta= 0.20
     Davidson diagonalization with overlap
     ethr =  3.64E-08,  avg # of iterations =  2.3

     negative rho (up, down):  6.589E-02 0.000E+00

     total cpu time spent up to now is      621.0 secs

     total energy              =   -9109.80575122 Ry
     estimated scf accuracy    <       0.00004816 Ry

     iteration # 16     ecut=    60.00 Ry     beta= 0.20
     Davidson diagonalization with overlap
     ethr =  2.19E-08,  avg # of iterations =  1.9

     negative rho (up, down):  6.590E-02 0.000E+00

     total cpu time spent up to now is      657.7 secs

     total energy              =   -9109.80575317 Ry
     estimated scf accuracy    <       0.00002088 Ry

     iteration # 17     ecut=    60.00 Ry     beta= 0.20
     Davidson diagonalization with overlap
     ethr =  9.49E-09,  avg # of iterations =  2.0

     negative rho (up, down):  6.589E-02 0.000E+00

     total cpu time spent up to now is      694.7 secs

     total energy              =   -9109.80575520 Ry
     estimated scf accuracy    <       0.00001059 Ry

     iteration # 18     ecut=    60.00 Ry     beta= 0.20
     Davidson diagonalization with overlap
     ethr =  4.81E-09,  avg # of iterations =  1.2

     negative rho (up, down):  6.588E-02 0.000E+00

     total cpu time spent up to now is      731.6 secs

     total energy              =   -9109.80575592 Ry
     estimated scf accuracy    <       0.00000732 Ry

     iteration # 19     ecut=    60.00 Ry     beta= 0.20
     Davidson diagonalization with overlap
     ethr =  3.33E-09,  avg # of iterations =  1.0

     negative rho (up, down):  6.586E-02 0.000E+00

     total cpu time spent up to now is      768.5 secs

     total energy              =   -9109.80575641 Ry
     estimated scf accuracy    <       0.00000185 Ry

     iteration # 20     ecut=    60.00 Ry     beta= 0.20
     Davidson diagonalization with overlap
     ethr =  8.39E-10,  avg # of iterations =  1.8

     negative rho (up, down):  6.582E-02 0.000E+00

     total cpu time spent up to now is      805.3 secs

     total energy              =   -9109.80575646 Ry
     estimated scf accuracy    <       0.00000084 Ry

     iteration # 21     ecut=    60.00 Ry     beta= 0.20
     Davidson diagonalization with overlap
     ethr =  3.84E-10,  avg # of iterations =  2.0

     negative rho (up, down):  6.579E-02 0.000E+00

     total cpu time spent up to now is      842.5 secs

     total energy              =   -9109.80575657 Ry
     estimated scf accuracy    <       0.00000035 Ry

     iteration # 22     ecut=    60.00 Ry     beta= 0.20
     Davidson diagonalization with overlap
     ethr =  1.60E-10,  avg # of iterations =  2.0

     negative rho (up, down):  6.578E-02 0.000E+00

     total cpu time spent up to now is      879.3 secs

     total energy              =   -9109.80575664 Ry
     estimated scf accuracy    <       0.00000019 Ry

     iteration # 23     ecut=    60.00 Ry     beta= 0.20
     Davidson diagonalization with overlap
     ethr =  8.50E-11,  avg # of iterations =  2.0

     negative rho (up, down):  6.576E-02 0.000E+00

     total cpu time spent up to now is      916.2 secs

     total energy              =   -9109.80575665 Ry
     estimated scf accuracy    <       0.00000004 Ry

     iteration # 24     ecut=    60.00 Ry     beta= 0.20
     Davidson diagonalization with overlap
     ethr =  1.94E-11,  avg # of iterations =  3.8

     negative rho (up, down):  6.575E-02 0.000E+00

     total cpu time spent up to now is      953.7 secs

     total energy              =   -9109.80575666 Ry
     estimated scf accuracy    <       0.00000007 Ry

     iteration # 25     ecut=    60.00 Ry     beta= 0.20
     Davidson diagonalization with overlap
     ethr =  1.94E-11,  avg # of iterations =  1.4

     negative rho (up, down):  6.575E-02 0.000E+00

     total cpu time spent up to now is      990.3 secs

     total energy              =   -9109.80575666 Ry
     estimated scf accuracy    <       0.00000002 Ry

     iteration # 26     ecut=    60.00 Ry     beta= 0.20
     Davidson diagonalization with overlap
     ethr =  9.32E-12,  avg # of iterations =  1.1

     negative rho (up, down):  6.573E-02 0.000E+00

     total cpu time spent up to now is     1026.7 secs

     End of self-consistent calculation

          k = 0.0000 0.0000 0.0000 ( 84049 PWs)   bands (ev):

  -103.3312-103.3103-103.2108-103.1566-103.1006-102.8560 -68.6552 -68.6130
   -68.5111 -68.2730 -63.9014 -63.8894 -63.7380 -63.7301 -63.7287 -63.6771
   -63.6747 -63.6658 -63.6222 -63.5760 -63.5514 -63.5024 -63.4756 -63.4489
   -63.3782 -63.3594 -63.3224 -63.1323 -35.1566 -35.1063 -35.0927 -35.0812
   -35.0427 -35.0427 -35.0127 -34.9409 -34.9339 -34.8768 -34.7908 -34.7464
   -13.0958 -12.6469 -12.5277 -12.2493 -12.0081 -11.8511 -11.7219 -11.6865
   -11.5694 -11.3600  -6.2251  -5.8440  -5.7664  -5.7171  -5.5431  -5.3489
    -5.3249  -4.8244  -4.6096  -4.2183  -4.0290  -3.9302  -3.7622  -3.6704
    -3.6338  -3.5847  -3.5018  -3.4829  -3.3094  -3.2151  -2.9933  -2.9084
    -2.7392  -2.6965  -2.6689  -2.6375  -2.5708  -2.4743  -2.2855  -2.2458
    -2.2012  -2.1869  -2.0401  -2.0009  -1.9532  -1.8759  -1.8357  -1.7511
    -1.7283  -1.6776  -1.4718  -1.3882  -1.3451  -1.3092  -1.2543  -1.1375
    -1.1114  -1.0266  -1.0024  -0.9975  -0.9040  -0.7567  -0.6073  -0.5642
    -0.5355  -0.4853  -0.3627  -0.2917  -0.1758   0.0732   0.0989   0.2269
     0.8985   0.9126   1.1332   1.2145   1.3124   1.5128   1.6675   1.7115
     1.8118   2.0342   2.3458   2.3818   2.6488   2.9249   3.1543   3.3107
     3.4271   3.5002   3.5301   3.7614

          k = 0.0000 0.4724 0.0000 ( 84013 PWs)   bands (ev):

  -103.3310-103.3104-103.2107-103.1565-103.1007-102.8560 -68.6551 -68.6128
   -68.5109 -68.2728 -63.9014 -63.8894 -63.7372 -63.7301 -63.7287 -63.6798
   -63.6747 -63.6657 -63.6199 -63.5762 -63.5509 -63.5024 -63.4793 -63.4455
   -63.3782 -63.3594 -63.3223 -63.1324 -35.1557 -35.1053 -35.0920 -35.0882
   -35.0497 -35.0420 -35.0118 -34.9479 -34.9331 -34.8760 -34.7899 -34.7538
   -13.0044 -12.5576 -12.4402 -12.1989 -11.9408 -11.8009 -11.6691 -11.6304
   -11.5145 -11.3244  -6.1366  -5.7593  -5.6786  -5.6271  -5.4693  -5.2715
    -5.2301  -4.7510  -4.5409  -4.1838  -4.0055  -3.9661  -3.8738  -3.7993
    -3.7219  -3.6254  -3.5910  -3.5149  -3.3234  -3.2041  -3.0999  -2.9318
    -2.8232  -2.7802  -2.7173  -2.6943  -2.6783  -2.6185  -2.4927  -2.3592
    -2.1714  -2.1519  -2.0927  -2.0476  -2.0224  -2.0098  -1.9381  -1.7963
    -1.7073  -1.6881  -1.6774  -1.5239  -1.4848  -1.4129  -1.3564  -1.3082
    -1.2541  -1.1765  -1.0971  -0.9801  -0.8812  -0.7779  -0.7470  -0.6004
    -0.5529  -0.4446  -0.3865  -0.3392  -0.1536  -0.0096   0.2424   0.4437
     0.6977   0.9304   1.0934   1.1693   1.2849   1.4505   1.5585   1.7264
     1.8379   1.9899   2.1260   2.3131   2.5583   2.7145   2.8716   2.8995
     3.0855   3.1589   3.4565   3.6970

          k = 0.0000 0.9448 0.0000 ( 83987 PWs)   bands (ev):

  -103.3306-103.3108-103.2107-103.1564-103.1008-102.8560 -68.6546 -68.6124
   -68.5105 -68.2724 -63.9014 -63.8896 -63.7348 -63.7301 -63.7288 -63.6865
   -63.6749 -63.6658 -63.6145 -63.5774 -63.5492 -63.5024 -63.4871 -63.4391
   -63.3785 -63.3594 -63.3224 -63.1324 -35.1535 -35.1065 -35.1028 -35.0899
   -35.0680 -35.0402 -35.0096 -34.9661 -34.9310 -34.8737 -34.7876 -34.7729
   -12.7450 -12.3050 -12.1948 -12.0548 -11.7660 -11.6633 -11.5232 -11.4669
   -11.3669 -11.2295  -5.9231  -5.5378  -5.4819  -5.4025  -5.2886  -5.0577
    -4.9929  -4.6087  -4.5322  -4.2469  -4.1521  -4.0913  -4.0663  -3.9933
    -3.9001  -3.8303  -3.8213  -3.6617  -3.5651  -3.4742  -3.2281  -3.1553
    -3.1306  -3.0384  -2.9515  -2.8805  -2.7484  -2.6749  -2.5817  -2.5749
    -2.4542  -2.4038  -2.2777  -2.2519  -2.2004  -2.0751  -2.0156  -1.9250
    -1.9088  -1.8629  -1.6965  -1.6879  -1.6527  -1.5170  -1.4887  -1.3594
    -1.3479  -1.2605  -1.1542  -1.0740  -0.9720  -0.9105  -0.8364  -0.7793
    -0.7448  -0.6480  -0.5460  -0.3788  -0.2598  -0.2145   0.5465   0.6648
     0.7907   0.9961   1.0825   1.1120   1.2173   1.3798   1.4157   1.5762
     1.8570   1.9318   1.9937   2.2328   2.2878   2.5267   2.5903   2.7596
     2.8643   3.0572   3.8462   4.0203

          k = 0.0000 1.4171 0.0000 ( 83873 PWs)   bands (ev):

  -103.3301-103.3113-103.2107-103.1562-103.1010-102.8560 -68.6541 -68.6119
   -68.5100 -68.2718 -63.9014 -63.8899 -63.7308 -63.7301 -63.7289 -63.6949
   -63.6751 -63.6658 -63.6080 -63.5790 -63.5466 -63.5024 -63.4952 -63.4330
   -63.3788 -63.3594 -63.3223 -63.1324 -35.1507 -35.1290 -35.0998 -35.0907
   -35.0869 -35.0380 -35.0068 -34.9886 -34.9285 -34.8709 -34.7965 -34.7847
   -12.3698 -11.9505 -11.8884 -11.7877 -11.5612 -11.4707 -11.3308 -11.2299
   -11.1806 -11.1090  -5.8359  -5.4871  -5.4072  -5.3266  -5.1729  -4.9923
    -4.8974  -4.8159  -4.7431  -4.6312  -4.5093  -4.3286  -4.2962  -4.0430
    -3.9804  -3.9249  -3.9051  -3.7704  -3.7113  -3.5290  -3.4426  -3.3612
    -3.2294  -3.1365  -3.0930  -3.0205  -2.9874  -2.8250  -2.6696  -2.6273
    -2.6014  -2.5506  -2.3897  -2.3443  -2.2606  -2.1911  -2.0919  -2.0788
    -2.0050  -1.9457  -1.8675  -1.8079  -1.6752  -1.6004  -1.5389  -1.4606
    -1.3921  -1.3641  -1.2886  -1.2254  -1.1134  -1.0606  -0.9945  -0.9339
    -0.8630  -0.7386  -0.7021  -0.5725  -0.4667  -0.3802   0.4686   0.6908
     0.8970   1.0339   1.1764   1.2707   1.3574   1.4333   1.5823   1.6148
     1.8779   1.9664   2.0748   2.3530   2.4130   2.5071   2.6791   2.9237
     3.0282   3.1464   3.6559   3.7113

          k = 0.0000 1.8895 0.0000 ( 83723 PWs)   bands (ev):

  -103.3296-103.3118-103.2107-103.1560-103.1011-102.8560 -68.6537 -68.6115
   -68.5096 -68.2714 -63.9014 -63.8901 -63.7301 -63.7289 -63.7257 -63.7028
   -63.6753 -63.6658 -63.6028 -63.5808 -63.5438 -63.5022 -63.5013 -63.4287
   -63.3791 -63.3594 -63.3222 -63.1323 -35.1487 -35.1469 -35.1087 -35.0971
   -35.0851 -35.0362 -35.0070 -35.0042 -34.9264 -34.8686 -34.8155 -34.7824
   -12.0069 -11.6890 -11.5535 -11.4457 -11.3698 -11.2879 -11.1863 -11.0837
   -11.0219 -10.9835  -6.0908  -5.9731  -5.8612  -5.8320  -5.4211  -5.2164
    -5.0429  -4.9001  -4.8391  -4.5910  -4.4409  -4.3990  -4.2203  -4.0220
    -3.9288  -3.7600  -3.7011  -3.6224  -3.5669  -3.5397  -3.4263  -3.3974
    -3.3256  -3.2690  -3.2054  -3.1612  -2.9806  -2.9067  -2.8142  -2.7388
    -2.5806  -2.5297  -2.4293  -2.3911  -2.2559  -2.2255  -2.1110  -2.0914
    -2.0335  -2.0007  -1.9781  -1.8327  -1.8046  -1.7526  -1.6398  -1.5933
    -1.4880  -1.4072  -1.3357  -1.2917  -1.2566  -1.1436  -1.1130  -1.1044
    -0.9903  -0.8524  -0.8073  -0.7071  -0.6249  -0.5376   0.3341   0.5206
     1.0466   1.0576   1.2481   1.2614   1.4232   1.8289   1.8870   1.9300
     1.9575   2.0579   2.2274   2.2748   2.4601   2.7632   2.8948   2.8988
     3.1889   3.3246   3.3503   3.5071

          k = 0.0000-2.3619 0.0000 ( 83678 PWs)   bands (ev):

  -103.3295-103.3119-103.2107-103.1560-103.1012-102.8560 -68.6536 -68.6113
   -68.5095 -68.2712 -63.9015 -63.8902 -63.7301 -63.7290 -63.7225 -63.7067
   -63.6754 -63.6658 -63.6007 -63.5818 -63.5424 -63.5036 -63.5020 -63.4273
   -63.3793 -63.3594 -63.3223 -63.1321 -35.1542 -35.1475 -35.1156 -35.0962
   -35.0843 -35.0355 -35.0136 -35.0036 -34.9256 -34.8678 -34.8228 -34.7815
   -11.8639 -11.5477 -11.4003 -11.2970 -11.2720 -11.1752 -11.1333 -11.0980
   -10.9661 -10.9276  -6.2566  -6.2047  -6.1091  -6.0898  -5.6383  -5.4015
    -5.1106  -4.9891  -4.7656  -4.7132  -4.4061  -4.1827  -3.9707  -3.9157
    -3.8362  -3.7571  -3.7083  -3.6021  -3.4820  -3.4809  -3.4213  -3.4128
    -3.3594  -3.3577  -3.1273  -3.1207  -3.0331  -3.0100  -2.8758  -2.8002
    -2.5031  -2.4934  -2.4705  -2.3807  -2.2313  -2.1968  -2.1094  -2.1075
    -2.0663  -1.9966  -1.9500  -1.8450  -1.8175  -1.7869  -1.7467  -1.7265
    -1.4637  -1.4633  -1.3637  -1.3163  -1.2672  -1.2105  -1.1715  -1.1539
    -1.0492  -1.0239  -0.8561  -0.8250  -0.5852  -0.5795   0.3193   0.4714
     1.0323   1.1635   1.1855   1.2268   1.5440   1.6136   1.8662   1.9539
     2.2196   2.2708   2.4299   2.4530   2.4798   2.6782   2.8350   2.8565
     3.1538   3.1929   3.4629   3.5180

          k =-0.5000 0.0000 0.0000 ( 84004 PWs)   bands (ev):

  -103.3312-103.3103-103.2108-103.1566-103.1006-102.8560 -68.6552 -68.6130
   -68.5111 -68.2730 -63.9014 -63.8894 -63.7379 -63.7301 -63.7287 -63.6770
   -63.6747 -63.6657 -63.6222 -63.5759 -63.5514 -63.5023 -63.4755 -63.4488
   -63.3781 -63.3594 -63.3223 -63.1323 -35.1566 -35.1063 -35.0927 -35.0812
   -35.0427 -35.0427 -35.0127 -34.9409 -34.9339 -34.8768 -34.7908 -34.7464
   -13.0783 -12.7729 -12.2727 -12.2459 -12.1624 -11.9443 -11.7282 -11.6177
   -11.4670 -11.4265  -6.1873  -6.0042  -5.7966  -5.7122  -5.4395  -5.2864
    -5.1522  -4.9389  -4.6109  -4.5004  -3.9449  -3.8181  -3.7573  -3.6322
    -3.6105  -3.5073  -3.5059  -3.3643  -3.3094  -3.2030  -3.1399  -2.9940
    -2.9786  -2.7299  -2.6607  -2.5976  -2.5175  -2.4120  -2.3555  -2.2527
    -2.1662  -2.1260  -2.0331  -1.9675  -1.9397  -1.8659  -1.8502  -1.7896
    -1.6878  -1.6075  -1.5577  -1.4631  -1.2994  -1.2964  -1.2156  -1.1269
    -1.1023  -1.0353  -0.9904  -0.9295  -0.9272  -0.8128  -0.5780  -0.5670
    -0.5119  -0.5004  -0.3511  -0.2591  -0.1857   0.0277   0.0994   0.2118
     0.9804   0.9955   1.1165   1.1492   1.3861   1.4111   1.5430   1.6085
     1.8945   1.9432   2.4275   2.5288   2.6173   2.7223   3.2754   3.2874
     3.3782   3.4036   3.6142   3.7008

          k =-0.5000 0.4724 0.0000 ( 84034 PWs)   bands (ev):

  -103.3310-103.3104-103.2107-103.1565-103.1007-102.8560 -68.6551 -68.6128
   -68.5109 -68.2728 -63.9014 -63.8895 -63.7372 -63.7301 -63.7287 -63.6797
   -63.6748 -63.6658 -63.6199 -63.5763 -63.5509 -63.5024 -63.4793 -63.4455
   -63.3782 -63.3594 -63.3223 -63.1324 -35.1557 -35.1053 -35.0920 -35.0882
   -35.0497 -35.0420 -35.0118 -34.9479 -34.9331 -34.8760 -34.7899 -34.7538
   -12.9880 -12.6794 -12.2106 -12.1756 -12.0847 -11.8958 -11.6747 -11.5650
   -11.4217 -11.3849  -6.0961  -5.9163  -5.7106  -5.6199  -5.3648  -5.2029
    -5.0743  -4.8720  -4.5513  -4.4519  -3.9578  -3.8978  -3.8851  -3.7459
    -3.6361  -3.5258  -3.4875  -3.4442  -3.3906  -3.2700  -3.1607  -3.0107
    -2.9722  -2.8248  -2.7168  -2.6939  -2.6447  -2.6163  -2.4281  -2.3396
    -2.2479  -2.1428  -2.0723  -2.0459  -1.9994  -1.9482  -1.9047  -1.8308
    -1.7845  -1.6711  -1.6343  -1.5705  -1.5148  -1.4176  -1.3716  -1.2558
    -1.2168  -1.1499  -1.0366  -0.9842  -0.8979  -0.7851  -0.7075  -0.6298
    -0.5449  -0.4747  -0.4659  -0.3310  -0.1051   0.0287   0.2746   0.3893
     0.7816   0.8908   1.1386   1.2392   1.3420   1.3840   1.5255   1.5581
     1.7973   1.9312   2.2028   2.4118   2.4437   2.6201   2.8527   2.9851
     3.0730   3.1097   3.5600   3.6487

          k =-0.5000 0.9448 0.0000 ( 83968 PWs)   bands (ev):

  -103.3306-103.3108-103.2107-103.1564-103.1008-102.8560 -68.6546 -68.6124
   -68.5105 -68.2724 -63.9014 -63.8897 -63.7348 -63.7301 -63.7288 -63.6864
   -63.6750 -63.6658 -63.6144 -63.5773 -63.5492 -63.5024 -63.4871 -63.4391
   -63.3785 -63.3594 -63.3223 -63.1324 -35.1535 -35.1065 -35.1028 -35.0899
   -35.0680 -35.0402 -35.0096 -34.9661 -34.9310 -34.8737 -34.7876 -34.7729
   -12.7319 -12.4122 -12.0696 -11.9534 -11.8637 -11.7611 -11.5303 -11.4272
   -11.2946 -11.2709  -5.8709  -5.6899  -5.4927  -5.3853  -5.1962  -5.0031
    -4.9219  -4.7926  -4.4314  -4.3783  -4.2208  -4.1381  -4.0611  -3.9796
    -3.7766  -3.7495  -3.6676  -3.6100  -3.5369  -3.4790  -3.3444  -3.2200
    -3.1614  -3.0950  -2.9287  -2.8631  -2.7662  -2.6642  -2.6437  -2.5419
    -2.4670  -2.4117  -2.3758  -2.2505  -2.1162  -2.0335  -2.0244  -1.9818
    -1.9196  -1.8667  -1.7533  -1.6677  -1.5567  -1.4965  -1.4749  -1.3356
    -1.2799  -1.2415  -1.2095  -1.1032  -1.0614  -0.9526  -0.8681  -0.7795
    -0.7557  -0.6467  -0.4650  -0.3108  -0.2420  -0.1874   0.5394   0.6519
     0.8565   0.9358   1.0663   1.1562   1.3129   1.4320   1.4803   1.5580
     1.6383   1.7784   2.0610   2.1320   2.3561   2.5497   2.6676   2.7021
     2.8030   3.0380   3.9042   3.9725

          k =-0.5000 1.4171 0.0000 ( 83910 PWs)   bands (ev):

  -103.3301-103.3113-103.2107-103.1562-103.1010-102.8560 -68.6541 -68.6119
   -68.5100 -68.2718 -63.9014 -63.8899 -63.7309 -63.7301 -63.7289 -63.6949
   -63.6752 -63.6658 -63.6081 -63.5790 -63.5466 -63.5024 -63.4952 -63.4330
   -63.3789 -63.3594 -63.3223 -63.1325 -35.1507 -35.1290 -35.0998 -35.0907
   -35.0869 -35.0380 -35.0068 -34.9886 -34.9285 -34.8709 -34.7965 -34.7847
   -12.3625 -12.0165 -11.8809 -11.6447 -11.5815 -11.5465 -11.3446 -11.2583
   -11.1257 -11.1172  -5.7761  -5.5957  -5.3296  -5.2299  -5.1831  -5.1189
    -5.0776  -4.8293  -4.6404  -4.5978  -4.4656  -4.3211  -4.2169  -4.0700
    -4.0249  -3.9180  -3.8420  -3.7949  -3.5892  -3.5602  -3.5524  -3.3867
    -3.2041  -3.0792  -3.0533  -3.0301  -2.9047  -2.8447  -2.8262  -2.7089
    -2.5773  -2.4910  -2.4275  -2.3745  -2.2617  -2.1729  -2.0930  -2.0641
    -2.0131  -1.9640  -1.9290  -1.8228  -1.6359  -1.5244  -1.4883  -1.4801
    -1.4090  -1.3384  -1.3039  -1.2290  -1.1069  -1.0799  -1.0620  -0.9155
    -0.8206  -0.7837  -0.6791  -0.5682  -0.4773  -0.3634   0.4665   0.6430
     1.0611   1.1245   1.2018   1.3307   1.3717   1.4269   1.4675   1.5786
     1.8174   1.9355   2.0726   2.1145   2.5538   2.6805   2.7187   2.8596
     2.9397   3.0023   3.7150   3.8193

          k =-0.5000 1.8895 0.0000 ( 83762 PWs)   bands (ev):

  -103.3296-103.3118-103.2107-103.1560-103.1011-102.8560 -68.6537 -68.6115
   -68.5096 -68.2714 -63.9015 -63.8901 -63.7301 -63.7290 -63.7257 -63.7028
   -63.6754 -63.6658 -63.6028 -63.5808 -63.5438 -63.5023 -63.5013 -63.4288
   -63.3791 -63.3594 -63.3223 -63.1323 -35.1487 -35.1469 -35.1087 -35.0971
   -35.0851 -35.0362 -35.0070 -35.0042 -34.9264 -34.8686 -34.8155 -34.7824
   -12.0057 -11.6792 -11.5928 -11.4248 -11.3406 -11.2900 -11.1948 -11.1108
   -11.0074 -10.9821  -6.1140  -6.0294  -5.8063  -5.7251  -5.4713  -5.2302
    -5.0756  -4.9201  -4.8249  -4.6422  -4.4209  -4.3138  -4.2685  -4.0102
    -3.9751  -3.8010  -3.6823  -3.6589  -3.5573  -3.4972  -3.3929  -3.3590
    -3.3211  -3.2570  -3.1561  -3.1104  -2.9991  -2.8834  -2.8405  -2.7196
    -2.6516  -2.5687  -2.4594  -2.3641  -2.2798  -2.2251  -2.1480  -2.0799
    -2.0445  -2.0158  -1.9630  -1.9177  -1.7659  -1.6789  -1.6004  -1.5477
    -1.5239  -1.4079  -1.3769  -1.3103  -1.2420  -1.1691  -1.1185  -1.0371
    -0.9813  -0.9193  -0.8304  -0.7051  -0.6418  -0.5047   0.3412   0.5132
     1.0424   1.1521   1.3051   1.3549   1.5014   1.6360   1.8856   1.9240
     1.9390   2.0122   2.1916   2.2910   2.4506   2.6302   2.8807   3.0196
     3.1097   3.2107   3.4608   3.5039

          k =-0.5000-2.3619 0.0000 ( 83684 PWs)   bands (ev):

  -103.3295-103.3119-103.2107-103.1560-103.1012-102.8560 -68.6536 -68.6113
   -68.5095 -68.2712 -63.9014 -63.8901 -63.7301 -63.7289 -63.7226 -63.7068
   -63.6754 -63.6658 -63.6008 -63.5819 -63.5425 -63.5037 -63.5020 -63.4273
   -63.3794 -63.3594 -63.3223 -63.1321 -35.1542 -35.1475 -35.1156 -35.0962
   -35.0843 -35.0355 -35.0136 -35.0036 -34.9256 -34.8678 -34.8228 -34.7815
   -11.8639 -11.5474 -11.4004 -11.2966 -11.2724 -11.1744 -11.1339 -11.1015
   -10.9637 -10.9268  -6.3265  -6.2747  -6.0194  -5.9633  -5.6879  -5.3841
    -5.1421  -4.9337  -4.8181  -4.7885  -4.3692  -4.1669  -4.0084  -3.9981
    -3.7556  -3.7245  -3.6621  -3.6133  -3.5295  -3.4840  -3.4602  -3.4227
    -3.3556  -3.3500  -3.1771  -3.1584  -2.8895  -2.8401  -2.8282  -2.7638
    -2.6264  -2.6041  -2.4476  -2.3496  -2.2410  -2.2293  -2.1305  -2.1233
    -2.0520  -2.0092  -1.9766  -1.8875  -1.8024  -1.8012  -1.6950  -1.6148
    -1.5143  -1.4748  -1.3980  -1.3245  -1.2800  -1.1917  -1.1761  -1.1460
    -1.0517  -1.0408  -0.8500  -0.8339  -0.5788  -0.5767   0.3242   0.4793
     1.0344   1.2113   1.2701   1.3029   1.4017   1.5373   2.0111   2.0317
     2.1939   2.2066   2.3130   2.3934   2.4840   2.6455   2.8428   2.8660
     3.0463   3.0948   3.6782   3.6945

     the Fermi energy is     0.0811 ev

!    total energy              =   -9109.80575666 Ry
     total all-electron energy =     -9109.805757 Ry
     estimated scf accuracy    <          5.9E-09 Ry
     smearing contrib. (-TS)   =      -0.00012856 Ry
     internal energy E=F+TS    =   -9109.80562811 Ry

     The total energy is F=E-TS. E is the sum of the following terms:
     one-electron contribution =  -16673.88510577 Ry
     hartree contribution      =    8196.34145499 Ry
     xc contribution           =    -365.26286371 Ry
     ewald contribution        =    6000.75249419 Ry
     one-center paw contrib.   =   -6267.75160780 Ry

     convergence has been achieved in  26 iterations

     negative rho (up, down):  6.573E-02 0.000E+00

     Forces acting on atoms (cartesian axes, Ry/au):

     atom    1 type  1   force =    -0.13638171    0.00000000    0.07360439
     atom    2 type  1   force =     0.00586412    0.00000000    0.00166690
     atom    3 type  1   force =     0.01767768    0.00000000    0.00217028
     atom    4 type  1   force =     0.00491841    0.00000000   -0.00259872
     atom    5 type  2   force =    -0.00486451    0.00000000   -0.00145567
     atom    6 type  2   force =    -0.00113624    0.00000000   -0.00061462
     atom    7 type  2   force =    -0.00244200    0.00000000   -0.00007119
     atom    8 type  2   force =    -0.01123664    0.00000000    0.00413251
     atom    9 type  2   force =    -0.00366698    0.00000000   -0.00004288
     atom   10 type  2   force =     0.08980032    0.00000000   -0.05191681
     atom   11 type  3   force =    -0.02016370    0.00000000   -0.00189512
     atom   12 type  3   force =     0.00016074    0.00000000   -0.00011986
     atom   13 type  3   force =     0.00062103    0.00000000    0.00039649
     atom   14 type  3   force =     0.02534854    0.00000000   -0.00090468
     atom   15 type  3   force =     0.00016056    0.00000000    0.00063001
     atom   16 type  3   force =     0.00063801    0.00000000    0.00018032
     atom   17 type  3   force =     0.00042429    0.00000000    0.00003227
     atom   18 type  3   force =    -0.07429475    0.00000000    0.06402531
     atom   19 type  3   force =     0.11168285    0.00000000   -0.08737131
     atom   20 type  3   force =    -0.00311004    0.00000000    0.00015239

     Total force =     0.257183     Total SCF correction =     0.000365


     Computing stress (Cartesian axis) and pressure


     negative rho (up, down):  6.573E-02 0.000E+00
          total   stress  (Ry/bohr**3)                   (kbar)     P=        5.97
   0.00009885   0.00000000  -0.00004095           14.54        0.00       -6.02
   0.00000000   0.00001566   0.00000000            0.00        2.30        0.00
  -0.00004095   0.00000000   0.00000725           -6.02        0.00        1.07


     BFGS Geometry Optimization
     Energy error            =      0.0E+00 Ry
     Gradient error          =      1.4E-01 Ry/Bohr

     number of scf cycles    =   1
     number of bfgs steps    =   0

     energy             new  =   -9109.8057566605 Ry

     new trust radius        =       0.1549760497 bohr
     new conv_thr            =       0.0000000100 Ry


ATOMIC_POSITIONS (angstrom)
Ta              15.3196707347        0.9149235643       12.4827899968
Ta               6.5746536749        2.7447696811       12.5928784181
Ta               2.2745102397        0.9149235643       12.4448144253
Ta              11.0880560587        2.7447696811       12.5907813025
Ni              12.8618339718        0.9149235643       11.7609192869
Ni               4.0434988539        2.7447696811       13.2738187069
Ni               4.7911744713        0.9149235643       11.7613852837
Ni              13.6068144393        2.7447696811       13.2765878387
Ni               8.8264061856        0.9149235643       12.3681829047
Ni               0.0555971851        2.7447696811       12.6401366218
Te              14.2023722018        2.7447696811       10.5342538983
Te               5.3928069168        0.9149235643       14.5005086762
Te              10.5957617516        0.9149235643       10.5195436887
Te               1.7885639561        2.7447696811       14.5160162216
Te               3.4437736569        2.7447696811       10.5353669269
Te              12.2643271591        0.9149235643       14.5008879714
Te               7.0618429449        0.9149235643       10.5191883501
Te              15.8425868166        2.7447696811       14.5505478640
Te               0.0673989444        0.9149235643       10.7913841598
Te               8.8269122003        2.7447696811       14.1982584574



     Writing config-only to output data dir /ddn/data/physics/eamoujaes/2D-Ta2Ni3Te5/ELASTIC/OUT/ta2ni3te5.save/ :
     XML data file
     NEW-OLD atomic charge density approx. for the potential

     negative rho (up, down):  6.553E-02 0.000E+00

     total cpu time spent up to now is     1120.8 secs

     Self-consistent Calculation

     iteration #  1     ecut=    60.00 Ry     beta= 0.20
     Davidson diagonalization with overlap
     c_bands:  2 eigenvalues not converged
     ethr =  1.00E-06,  avg # of iterations = 10.7

     negative rho (up, down):  6.550E-02 0.000E+00

     total cpu time spent up to now is     1161.7 secs

     total energy              =   -9109.72807133 Ry
     estimated scf accuracy    <       0.32358448 Ry

     iteration #  2     ecut=    60.00 Ry     beta= 0.20
     Davidson diagonalization with overlap
     ethr =  1.47E-04,  avg # of iterations =  4.0

     negative rho (up, down):  6.551E-02 0.000E+00

     total cpu time spent up to now is     1199.0 secs

     total energy              =   -9109.34222326 Ry
     estimated scf accuracy    <      15.60117544 Ry

     iteration #  3     ecut=    60.00 Ry     beta= 0.20
     Davidson diagonalization with overlap
     ethr =  1.47E-04,  avg # of iterations =  3.0

     negative rho (up, down):  6.551E-02 0.000E+00

     total cpu time spent up to now is     1236.2 secs

     total energy              =   -9109.84388142 Ry
     estimated scf accuracy    <       0.19604802 Ry

     iteration #  4     ecut=    60.00 Ry     beta= 0.20
     Davidson diagonalization with overlap
     ethr =  8.91E-05,  avg # of iterations =  1.1

     negative rho (up, down):  6.552E-02 0.000E+00

     total cpu time spent up to now is     1272.8 secs

     total energy              =   -9109.85083800 Ry
     estimated scf accuracy    <       0.02973769 Ry

     iteration #  5     ecut=    60.00 Ry     beta= 0.20
     Davidson diagonalization with overlap
     ethr =  1.35E-05,  avg # of iterations =  2.7

     negative rho (up, down):  6.552E-02 0.000E+00

     total cpu time spent up to now is     1309.4 secs

     total energy              =   -9109.85049244 Ry
     estimated scf accuracy    <       0.00588491 Ry

     iteration #  6     ecut=    60.00 Ry     beta= 0.20
     Davidson diagonalization with overlap
     ethr =  2.67E-06,  avg # of iterations =  2.3

     negative rho (up, down):  6.552E-02 0.000E+00

     total cpu time spent up to now is     1346.5 secs

     total energy              =   -9109.85070469 Ry
     estimated scf accuracy    <       0.00159527 Ry

     iteration #  7     ecut=    60.00 Ry     beta= 0.20
     Davidson diagonalization with overlap
     ethr =  7.25E-07,  avg # of iterations =  2.0

     negative rho (up, down):  6.551E-02 0.000E+00

     total cpu time spent up to now is     1383.3 secs

     total energy              =   -9109.84989692 Ry
     estimated scf accuracy    <       0.00290308 Ry

     iteration #  8     ecut=    60.00 Ry     beta= 0.20
     Davidson diagonalization with overlap
     ethr =  7.25E-07,  avg # of iterations =  2.8

     negative rho (up, down):  6.551E-02 0.000E+00

     total cpu time spent up to now is     1420.6 secs

     total energy              =   -9109.84943562 Ry
     estimated scf accuracy    <       0.00460179 Ry

     iteration #  9     ecut=    60.00 Ry     beta= 0.20
     Davidson diagonalization with overlap
     ethr =  7.25E-07,  avg # of iterations =  2.0

     negative rho (up, down):  6.550E-02 0.000E+00

     total cpu time spent up to now is     1457.7 secs

     total energy              =   -9109.84926641 Ry
     estimated scf accuracy    <       0.00402293 Ry

     iteration # 10     ecut=    60.00 Ry     beta= 0.20
     Davidson diagonalization with overlap
     ethr =  7.25E-07,  avg # of iterations =  1.0

     negative rho (up, down):  6.550E-02 0.000E+00

     total cpu time spent up to now is     1494.6 secs

     total energy              =   -9109.84906848 Ry
     estimated scf accuracy    <       0.00330291 Ry

     iteration # 11     ecut=    60.00 Ry     beta= 0.20
     Davidson diagonalization with overlap
     ethr =  7.25E-07,  avg # of iterations =  1.0

     negative rho (up, down):  6.550E-02 0.000E+00

     total cpu time spent up to now is     1531.3 secs

     total energy              =   -9109.84897285 Ry
     estimated scf accuracy    <       0.00193403 Ry

     iteration # 12     ecut=    60.00 Ry     beta= 0.20
     Davidson diagonalization with overlap
     ethr =  7.25E-07,  avg # of iterations =  1.0

     negative rho (up, down):  6.549E-02 0.000E+00

     total cpu time spent up to now is     1568.4 secs

     total energy              =   -9109.84894166 Ry
     estimated scf accuracy    <       0.00024601 Ry

     iteration # 13     ecut=    60.00 Ry     beta= 0.20
     Davidson diagonalization with overlap
     ethr =  1.12E-07,  avg # of iterations =  2.0

     negative rho (up, down):  6.549E-02 0.000E+00

     total cpu time spent up to now is     1605.7 secs

     total energy              =   -9109.84892129 Ry
     estimated scf accuracy    <       0.00010357 Ry

     iteration # 14     ecut=    60.00 Ry     beta= 0.20
     Davidson diagonalization with overlap
     ethr =  4.71E-08,  avg # of iterations =  2.2

     negative rho (up, down):  6.549E-02 0.000E+00

     total cpu time spent up to now is     1643.1 secs

     total energy              =   -9109.84892498 Ry
     estimated scf accuracy    <       0.00001651 Ry

     iteration # 15     ecut=    60.00 Ry     beta= 0.20
     Davidson diagonalization with overlap
     ethr =  7.51E-09,  avg # of iterations =  3.7

     negative rho (up, down):  6.549E-02 0.000E+00

     total cpu time spent up to now is     1680.6 secs

     total energy              =   -9109.84892426 Ry
     estimated scf accuracy    <       0.00000632 Ry

     iteration # 16     ecut=    60.00 Ry     beta= 0.20
     Davidson diagonalization with overlap
     ethr =  2.87E-09,  avg # of iterations =  2.8

     negative rho (up, down):  6.549E-02 0.000E+00

     total cpu time spent up to now is     1717.8 secs

     total energy              =   -9109.84892468 Ry
     estimated scf accuracy    <       0.00000341 Ry

     iteration # 17     ecut=    60.00 Ry     beta= 0.20
     Davidson diagonalization with overlap
     ethr =  1.55E-09,  avg # of iterations =  1.9

     negative rho (up, down):  6.549E-02 0.000E+00

     total cpu time spent up to now is     1755.1 secs

     total energy              =   -9109.84892472 Ry
     estimated scf accuracy    <       0.00000126 Ry

     iteration # 18     ecut=    60.00 Ry     beta= 0.20
     Davidson diagonalization with overlap
     ethr =  5.74E-10,  avg # of iterations =  2.0

     negative rho (up, down):  6.549E-02 0.000E+00

     total cpu time spent up to now is     1791.9 secs

     total energy              =   -9109.84892466 Ry
     estimated scf accuracy    <       0.00000149 Ry

     iteration # 19     ecut=    60.00 Ry     beta= 0.20
     Davidson diagonalization with overlap
     ethr =  5.74E-10,  avg # of iterations =  2.0

     negative rho (up, down):  6.549E-02 0.000E+00

     total cpu time spent up to now is     1828.9 secs

     total energy              =   -9109.84892476 Ry
     estimated scf accuracy    <       0.00000036 Ry

     iteration # 20     ecut=    60.00 Ry     beta= 0.20
     Davidson diagonalization with overlap
     ethr =  1.65E-10,  avg # of iterations =  2.0

     negative rho (up, down):  6.549E-02 0.000E+00

     total cpu time spent up to now is     1866.2 secs

     total energy              =   -9109.84892477 Ry
     estimated scf accuracy    <       0.00000017 Ry

     iteration # 21     ecut=    60.00 Ry     beta= 0.20
     Davidson diagonalization with overlap
     ethr =  7.79E-11,  avg # of iterations =  2.0

     negative rho (up, down):  6.549E-02 0.000E+00

     total cpu time spent up to now is     1903.1 secs

     total energy              =   -9109.84892477 Ry
     estimated scf accuracy    <       0.00000009 Ry

     iteration # 22     ecut=    60.00 Ry     beta= 0.20
     Davidson diagonalization with overlap
     ethr =  3.88E-11,  avg # of iterations =  2.0

     negative rho (up, down):  6.549E-02 0.000E+00

     total cpu time spent up to now is     1940.4 secs

     total energy              =   -9109.84892478 Ry
     estimated scf accuracy    <       0.00000003 Ry

     iteration # 23     ecut=    60.00 Ry     beta= 0.20
     Davidson diagonalization with overlap
     ethr =  1.50E-11,  avg # of iterations =  1.5

     negative rho (up, down):  6.549E-02 0.000E+00

     total cpu time spent up to now is     1977.3 secs

     End of self-consistent calculation

          k = 0.0000 0.0000 0.0000 ( 84049 PWs)   bands (ev):

  -103.2845-103.2709-103.2673-103.2550-103.0685-102.8576 -68.5889 -68.5716
   -68.5538 -68.3904 -63.8561 -63.8517 -63.8417 -63.8279 -63.6908 -63.6759
   -63.6319 -63.6161 -63.5796 -63.5738 -63.5669 -63.5371 -63.5264 -63.5246
   -63.3642 -63.3591 -63.3225 -63.1321 -35.0835 -35.0756 -35.0520 -35.0193
   -35.0175 -35.0101 -35.0065 -34.9834 -34.9821 -34.9455 -34.8642 -34.8470
   -13.0045 -12.6017 -12.5459 -12.1712 -11.9852 -11.8495 -11.7039 -11.6857
   -11.5585 -11.3590  -6.2109  -5.8550  -5.7284  -5.6821  -5.5016  -5.3465
    -5.3308  -4.7841  -4.6146  -4.1720  -4.0679  -3.8569  -3.7484  -3.7012
    -3.6204  -3.5784  -3.5643  -3.5476  -3.2616  -3.1994  -2.9247  -2.8935
    -2.7232  -2.6751  -2.6667  -2.5879  -2.5407  -2.4126  -2.2989  -2.2556
    -2.2119  -2.2065  -2.0421  -1.9636  -1.9269  -1.8995  -1.8819  -1.7533
    -1.7032  -1.6634  -1.4458  -1.3927  -1.3227  -1.2787  -1.2311  -1.1817
    -1.0788  -1.0736  -1.0237  -0.9901  -0.9499  -0.7773  -0.6338  -0.5831
    -0.5566  -0.4028  -0.3526  -0.2419  -0.2163   0.0928   0.1298   0.1999
     0.9177   0.9361   1.1466   1.2210   1.3128   1.5365   1.6804   1.7174
     1.8369   2.1079   2.3307   2.3470   2.5253   2.8466   3.1640   3.3473
     3.4393   3.4682   3.4841   3.5415

          k = 0.0000 0.4724 0.0000 ( 84013 PWs)   bands (ev):

  -103.2842-103.2711-103.2671-103.2553-103.0685-102.8576 -68.5888 -68.5714
   -68.5537 -68.3903 -63.8560 -63.8519 -63.8417 -63.8280 -63.6901 -63.6752
   -63.6347 -63.6188 -63.5771 -63.5738 -63.5644 -63.5374 -63.5264 -63.5249
   -63.3641 -63.3591 -63.3225 -63.1322 -35.0826 -35.0747 -35.0511 -35.0245
   -35.0186 -35.0135 -35.0095 -34.9904 -34.9813 -34.9446 -34.8634 -34.8543
   -12.9111 -12.5106 -12.4603 -12.1200 -11.9161 -11.8042 -11.6466 -11.6302
   -11.5050 -11.3236  -6.1219  -5.7722  -5.6332  -5.5905  -5.4320  -5.2692
    -5.2346  -4.7106  -4.5464  -4.1377  -4.0496  -3.9311  -3.8434  -3.8084
    -3.6878  -3.6512  -3.6264  -3.5410  -3.2458  -3.1927  -3.0743  -2.9445
    -2.7867  -2.7703  -2.7107  -2.6829  -2.6651  -2.5751  -2.4689  -2.3138
    -2.1709  -2.1508  -2.1002  -2.0582  -2.0295  -2.0065  -1.9189  -1.7740
    -1.7377  -1.6780  -1.6576  -1.5063  -1.4825  -1.4399  -1.3459  -1.3239
    -1.2250  -1.2236  -1.1308  -0.9419  -0.8710  -0.8364  -0.7934  -0.5859
    -0.5286  -0.4424  -0.4366  -0.2895  -0.1318  -0.0196   0.2706   0.4331
     0.7288   0.9184   1.1269   1.1724   1.2915   1.4460   1.5561   1.7672
     1.8643   2.0283   2.0918   2.2240   2.5467   2.7230   2.8288   2.8949
     3.0396   3.1447   3.4622   3.7025

          k = 0.0000 0.9448 0.0000 ( 83987 PWs)   bands (ev):

  -103.2836-103.2718-103.2663-103.2560-103.0685-102.8576 -68.5884 -68.5710
   -68.5533 -68.3898 -63.8559 -63.8522 -63.8418 -63.8282 -63.6876 -63.6728
   -63.6416 -63.6257 -63.5738 -63.5712 -63.5587 -63.5387 -63.5264 -63.5260
   -63.3642 -63.3592 -63.3225 -63.1322 -35.0801 -35.0722 -35.0488 -35.0427
   -35.0320 -35.0165 -35.0087 -35.0076 -34.9793 -34.9421 -34.8732 -34.8614
   -12.6451 -12.2565 -12.2154 -11.9745 -11.7338 -11.6829 -11.4899 -11.4664
   -11.3625 -11.2295  -5.9057  -5.5594  -5.4150  -5.3637  -5.2524  -5.0589
    -4.9942  -4.5656  -4.5506  -4.2529  -4.1420  -4.0706  -3.9918  -3.9757
    -3.8667  -3.8519  -3.8422  -3.6361  -3.5170  -3.4833  -3.1917  -3.1552
    -3.1027  -3.0188  -2.9636  -2.8810  -2.7548  -2.6446  -2.5799  -2.5036
    -2.4431  -2.4211  -2.2917  -2.2254  -2.2134  -2.0603  -2.0195  -1.9494
    -1.9126  -1.8762  -1.7116  -1.6927  -1.6487  -1.5083  -1.4744  -1.4015
    -1.3644  -1.2642  -1.1971  -1.0588  -0.9203  -0.9061  -0.8473  -0.8146
    -0.7352  -0.6693  -0.4944  -0.3664  -0.3174  -0.2263   0.6013   0.6894
     0.7702   1.0460   1.0832   1.1166   1.2267   1.3436   1.3942   1.5343
     1.8964   1.9433   1.9834   2.2112   2.2823   2.5295   2.5703   2.7329
     2.8650   2.9732   3.8526   4.0321

          k = 0.0000 1.4171 0.0000 ( 83873 PWs)   bands (ev):

  -103.2827-103.2727-103.2652-103.2570-103.0685-102.8576 -68.5879 -68.5705
   -68.5527 -68.3893 -63.8557 -63.8527 -63.8419 -63.8284 -63.6834 -63.6689
   -63.6504 -63.6341 -63.5738 -63.5643 -63.5520 -63.5408 -63.5279 -63.5264
   -63.3641 -63.3591 -63.3224 -63.1322 -35.0772 -35.0693 -35.0651 -35.0546
   -35.0460 -35.0312 -35.0140 -35.0054 -34.9768 -34.9390 -34.8964 -34.8589
   -12.2573 -11.9186 -11.8453 -11.7469 -11.5356 -11.4960 -11.2908 -11.2204
   -11.1895 -11.1109  -5.8003  -5.4608  -5.3958  -5.3327  -5.1046  -4.9955
    -4.8935  -4.8183  -4.7079  -4.5690  -4.4783  -4.3032  -4.2536  -4.0208
    -3.9792  -3.9315  -3.8945  -3.7505  -3.7062  -3.5211  -3.4044  -3.3446
    -3.2492  -3.1463  -3.0676  -3.0029  -2.9871  -2.8214  -2.6475  -2.6061
    -2.5913  -2.5722  -2.4262  -2.3732  -2.1899  -2.1477  -2.1018  -2.0814
    -2.0450  -1.9615  -1.8869  -1.8205  -1.6707  -1.5822  -1.5757  -1.4541
    -1.4097  -1.3518  -1.3368  -1.2644  -1.0792  -1.0266  -0.9970  -0.9605
    -0.8326  -0.7343  -0.7164  -0.5714  -0.4656  -0.4355   0.5257   0.6872
     0.9266   1.0687   1.1257   1.2634   1.3863   1.4290   1.5653   1.5936
     1.8742   1.9944   2.0440   2.3220   2.3754   2.5251   2.6918   2.8738
     3.0063   3.1227   3.6514   3.7162

          k = 0.0000 1.8895 0.0000 ( 83723 PWs)   bands (ev):

  -103.2817-103.2736-103.2641-103.2582-103.0685-102.8576 -68.5874 -68.5701
   -68.5523 -68.3889 -63.8553 -63.8532 -63.8419 -63.8286 -63.6774 -63.6638
   -63.6592 -63.6421 -63.5738 -63.5580 -63.5462 -63.5436 -63.5302 -63.5264
   -63.3641 -63.3590 -63.3224 -63.1321 -35.0834 -35.0746 -35.0730 -35.0667
   -35.0495 -35.0435 -35.0119 -35.0036 -34.9748 -34.9365 -34.9151 -34.8569
   -11.8848 -11.6093 -11.4782 -11.4394 -11.3758 -11.3011 -11.1631 -11.0955
   -11.0121 -10.9925  -6.0370  -5.9410  -5.8884  -5.8396  -5.3172  -5.1880
    -5.0311  -4.9051  -4.8030  -4.5997  -4.3887  -4.3475  -4.2209  -3.9921
    -3.9276  -3.7483  -3.6838  -3.6036  -3.5373  -3.5341  -3.4040  -3.3845
    -3.3113  -3.2874  -3.2069  -3.1686  -2.9737  -2.8750  -2.7983  -2.7478
    -2.5845  -2.5023  -2.4808  -2.4251  -2.2205  -2.1423  -2.1353  -2.0899
    -2.0734  -2.0291  -1.9809  -1.8653  -1.8164  -1.7200  -1.6966  -1.5833
    -1.4715  -1.4490  -1.3405  -1.3018  -1.2254  -1.1741  -1.1109  -1.0757
    -0.9306  -0.9114  -0.8116  -0.6719  -0.6546  -0.6062   0.3804   0.5119
     1.0448   1.0909   1.2378   1.2445   1.4271   1.8447   1.9008   1.9317
     1.9743   2.0459   2.2234   2.2591   2.4118   2.7046   2.9076   2.9123
     3.1503   3.3146   3.3587   3.4874

          k = 0.0000-2.3619 0.0000 ( 83678 PWs)   bands (ev):

  -103.2813-103.2740-103.2635-103.2587-103.0685-102.8576 -68.5873 -68.5699
   -68.5522 -68.3887 -63.8553 -63.8535 -63.8420 -63.8287 -63.6728 -63.6647
   -63.6605 -63.6461 -63.5739 -63.5550 -63.5455 -63.5437 -63.5316 -63.5264
   -63.3642 -63.3588 -63.3225 -63.1319 -35.0902 -35.0799 -35.0737 -35.0658
   -35.0563 -35.0427 -35.0111 -35.0029 -34.9741 -34.9356 -34.9223 -34.8562
   -11.7493 -11.4041 -11.3380 -11.2570 -11.2366 -11.2179 -11.2068 -11.1029
   -10.9475 -10.9404  -6.2046  -6.1691  -6.1321  -6.1083  -5.5219  -5.3809
    -5.0819  -4.9783  -4.7632  -4.7421  -4.3288  -4.1333  -3.9312  -3.9245
    -3.8214  -3.8190  -3.6457  -3.5473  -3.4567  -3.4411  -3.4087  -3.3899
    -3.3886  -3.3688  -3.1367  -3.1078  -3.0103  -2.9990  -2.9098  -2.7969
    -2.5167  -2.5134  -2.4089  -2.4009  -2.2398  -2.1561  -2.1181  -2.1000
    -2.0881  -2.0643  -1.9458  -1.8467  -1.8156  -1.7998  -1.7754  -1.7588
    -1.4743  -1.4093  -1.3561  -1.2512  -1.2498  -1.2362  -1.2011  -1.1885
    -1.0498  -1.0406  -0.8426  -0.8296  -0.6278  -0.6203   0.3606   0.4608
     1.0322   1.1726   1.2129   1.2290   1.5237   1.5818   1.9260   1.9420
     2.2603   2.2723   2.4311   2.4502   2.4541   2.6043   2.8422   2.8595
     3.1385   3.1416   3.4349   3.5040

          k =-0.5000 0.0000 0.0000 ( 84004 PWs)   bands (ev):

  -103.2845-103.2709-103.2673-103.2550-103.0685-102.8576 -68.5889 -68.5716
   -68.5538 -68.3904 -63.8561 -63.8518 -63.8418 -63.8280 -63.6908 -63.6758
   -63.6318 -63.6160 -63.5795 -63.5738 -63.5668 -63.5370 -63.5264 -63.5245
   -63.3642 -63.3590 -63.3225 -63.1321 -35.0835 -35.0756 -35.0520 -35.0193
   -35.0175 -35.0102 -35.0065 -34.9834 -34.9821 -34.9455 -34.8642 -34.8470
   -12.9715 -12.7764 -12.2344 -12.1828 -12.1466 -11.9515 -11.6881 -11.6334
   -11.4478 -11.4318  -6.1678  -6.0143  -5.7471  -5.6926  -5.4166  -5.3005
    -5.0916  -4.9400  -4.6025  -4.5002  -3.8800  -3.8267  -3.7480  -3.6221
    -3.6133  -3.5878  -3.4640  -3.4407  -3.2613  -3.1923  -3.1490  -2.9693
    -2.8920  -2.7098  -2.6173  -2.5972  -2.4773  -2.4582  -2.2793  -2.2557
    -2.2152  -2.1182  -1.9930  -1.9775  -1.9038  -1.9031  -1.8588  -1.7521
    -1.6840  -1.5980  -1.5812  -1.4402  -1.3083  -1.2283  -1.2014  -1.1226
    -1.0687  -1.0550  -1.0497  -1.0111  -0.9044  -0.8508  -0.5758  -0.5722
    -0.5528  -0.4779  -0.3195  -0.2315  -0.1722   0.0149   0.1307   0.1866
     1.0331   1.0636   1.1084   1.1086   1.4311   1.4460   1.5038   1.5985
     1.9091   2.0305   2.4210   2.4680   2.5216   2.6542   3.2928   3.3204
     3.3664   3.3936   3.6169   3.6800

          k =-0.5000 0.4724 0.0000 ( 84034 PWs)   bands (ev):

  -103.2842-103.2711-103.2671-103.2553-103.0685-102.8576 -68.5888 -68.5714
   -68.5537 -68.3903 -63.8561 -63.8518 -63.8418 -63.8280 -63.6900 -63.6751
   -63.6347 -63.6188 -63.5771 -63.5738 -63.5644 -63.5375 -63.5264 -63.5250
   -63.3642 -63.3591 -63.3225 -63.1322 -35.0826 -35.0747 -35.0511 -35.0245
   -35.0186 -35.0135 -35.0095 -34.9904 -34.9813 -34.9446 -34.8634 -34.8543
   -12.8796 -12.6827 -12.1538 -12.1208 -12.0782 -11.9034 -11.6358 -11.5795
   -11.4035 -11.3897  -6.0758  -5.9277  -5.6568  -5.5994  -5.3404  -5.2144
    -5.0194  -4.8722  -4.5451  -4.4475  -3.9465  -3.9171  -3.8282  -3.7522
    -3.6366  -3.5523  -3.4535  -3.4308  -3.3936  -3.3035  -3.0517  -3.0131
    -2.9536  -2.8281  -2.7124  -2.6785  -2.6521  -2.6027  -2.3326  -2.3145
    -2.2736  -2.1421  -2.0719  -2.0620  -1.9833  -1.9231  -1.8855  -1.8327
    -1.8017  -1.6553  -1.6315  -1.5561  -1.5061  -1.4459  -1.3788  -1.2950
    -1.1751  -1.1536  -1.0736  -0.9989  -0.8701  -0.8268  -0.7135  -0.6362
    -0.5421  -0.4808  -0.4379  -0.3680  -0.0771   0.0340   0.3041   0.3674
     0.8126   0.8700   1.1986   1.2383   1.3813   1.4010   1.4810   1.5770
     1.8374   1.9182   2.2058   2.3149   2.4472   2.5836   2.8665   2.9653
     3.0374   3.0853   3.5735   3.6369

          k =-0.5000 0.9448 0.0000 ( 83968 PWs)   bands (ev):

  -103.2836-103.2718-103.2663-103.2560-103.0685-102.8576 -68.5884 -68.5710
   -68.5533 -68.3898 -63.8559 -63.8522 -63.8418 -63.8282 -63.6876 -63.6728
   -63.6416 -63.6257 -63.5738 -63.5712 -63.5587 -63.5387 -63.5264 -63.5260
   -63.3642 -63.3591 -63.3225 -63.1322 -35.0801 -35.0722 -35.0488 -35.0427
   -35.0320 -35.0165 -35.0087 -35.0077 -34.9793 -34.9421 -34.8732 -34.8614
   -12.6185 -12.4148 -11.9814 -11.9235 -11.8597 -11.7703 -11.4958 -11.4373
   -11.2815 -11.2732  -5.8459  -5.7080  -5.4228  -5.3609  -5.1605  -5.0067
    -4.8913  -4.8004  -4.4074  -4.3949  -4.1991  -4.1377  -4.0367  -4.0023
    -3.7246  -3.6586  -3.6346  -3.6194  -3.5367  -3.4939  -3.2872  -3.1803
    -3.1645  -3.1384  -2.9106  -2.8875  -2.7504  -2.6267  -2.5939  -2.5626
    -2.4473  -2.4079  -2.3552  -2.2923  -2.0866  -2.0734  -2.0086  -1.9618
    -1.9269  -1.8609  -1.7937  -1.6749  -1.5303  -1.5187  -1.4701  -1.3706
    -1.2590  -1.2364  -1.2126  -1.1799  -1.0155  -0.9416  -0.8765  -0.8079
    -0.7494  -0.6557  -0.4052  -0.3301  -0.2778  -0.1938   0.5721   0.6546
     0.8720   0.9280   1.1080   1.1516   1.3423   1.3775   1.4964   1.5620
     1.6487   1.7389   2.0709   2.1146   2.3773   2.5165   2.6522   2.6990
     2.7903   2.9387   3.9193   3.9652

          k =-0.5000 1.4171 0.0000 ( 83910 PWs)   bands (ev):

  -103.2827-103.2727-103.2652-103.2570-103.0685-102.8576 -68.5879 -68.5705
   -68.5527 -68.3893 -63.8557 -63.8527 -63.8419 -63.8284 -63.6834 -63.6689
   -63.6505 -63.6341 -63.5739 -63.5643 -63.5521 -63.5409 -63.5279 -63.5264
   -63.3642 -63.3592 -63.3225 -63.1323 -35.0772 -35.0693 -35.0651 -35.0546
   -35.0460 -35.0312 -35.0140 -35.0054 -34.9768 -34.9390 -34.8964 -34.8589
   -12.2409 -12.0177 -11.7853 -11.6090 -11.5879 -11.5519 -11.3186 -11.2618
   -11.1211 -11.1171  -5.7299  -5.5987  -5.2822  -5.2365  -5.1425  -5.1280
    -5.0275  -4.8460  -4.5772  -4.5474  -4.4825  -4.3293  -4.1355  -4.0338
    -4.0233  -3.9111  -3.8296  -3.7868  -3.5831  -3.5476  -3.5177  -3.4036
    -3.1758  -3.0789  -3.0258  -3.0072  -2.9619  -2.8544  -2.7937  -2.7110
    -2.5380  -2.4956  -2.4417  -2.4080  -2.2108  -2.1392  -2.1155  -2.0771
    -2.0397  -1.9643  -1.9426  -1.8391  -1.6051  -1.5237  -1.4994  -1.4981
    -1.4088  -1.3666  -1.3177  -1.3041  -1.0867  -1.0534  -1.0117  -0.9478
    -0.8341  -0.7782  -0.6474  -0.5631  -0.5004  -0.4107   0.5180   0.6374
     1.0541   1.1357   1.2428   1.2962   1.3860   1.4273   1.4920   1.5757
     1.8034   1.8865   2.0808   2.0948   2.5432   2.6621   2.7299   2.8196
     2.9214   2.9698   3.7277   3.8087

          k =-0.5000 1.8895 0.0000 ( 83762 PWs)   bands (ev):

  -103.2817-103.2736-103.2641-103.2582-103.0685-102.8576 -68.5874 -68.5701
   -68.5523 -68.3889 -63.8554 -63.8532 -63.8420 -63.8287 -63.6775 -63.6638
   -63.6593 -63.6421 -63.5739 -63.5580 -63.5463 -63.5436 -63.5302 -63.5264
   -63.3642 -63.3590 -63.3224 -63.1321 -35.0834 -35.0746 -35.0730 -35.0667
   -35.0495 -35.0435 -35.0119 -35.0036 -34.9748 -34.9365 -34.9151 -34.8569
   -11.8823 -11.5926 -11.5503 -11.4120 -11.3223 -11.2951 -11.1904 -11.1170
   -10.9980 -10.9918  -6.0695  -6.0182  -5.7958  -5.7450  -5.3666  -5.2183
    -5.0456  -4.9309  -4.7712  -4.6424  -4.3717  -4.2823  -4.2573  -4.0168
    -3.9322  -3.8021  -3.6759  -3.6449  -3.5186  -3.4824  -3.3832  -3.3382
    -3.3276  -3.2483  -3.1567  -3.1010  -2.9912  -2.9175  -2.7765  -2.7376
    -2.6276  -2.6201  -2.4191  -2.3819  -2.2658  -2.2159  -2.1608  -2.0783
    -2.0648  -2.0415  -1.9693  -1.9518  -1.7300  -1.6635  -1.6261  -1.5775
    -1.5017  -1.4539  -1.3986  -1.3052  -1.2234  -1.1830  -1.0917  -1.0183
    -1.0020  -0.9192  -0.8397  -0.7094  -0.6324  -0.5732   0.3894   0.5031
     1.0279   1.1541   1.3131   1.4003   1.4983   1.6090   1.9013   1.9483
     1.9524   2.0048   2.1854   2.2564   2.4359   2.5583   2.9127   2.9807
     3.1348   3.1852   3.4412   3.4761

          k =-0.5000-2.3619 0.0000 ( 83684 PWs)   bands (ev):

  -103.2813-103.2740-103.2635-103.2587-103.0685-102.8576 -68.5873 -68.5699
   -68.5522 -68.3887 -63.8552 -63.8534 -63.8419 -63.8287 -63.6728 -63.6648
   -63.6606 -63.6462 -63.5738 -63.5550 -63.5455 -63.5437 -63.5316 -63.5264
   -63.3641 -63.3588 -63.3225 -63.1319 -35.0902 -35.0799 -35.0737 -35.0658
   -35.0563 -35.0427 -35.0111 -35.0029 -34.9741 -34.9356 -34.9223 -34.8562
   -11.7492 -11.4038 -11.3376 -11.2563 -11.2341 -11.2177 -11.2111 -11.1059
   -10.9454 -10.9393  -6.2933  -6.2625  -6.0160  -5.9751  -5.5606  -5.3788
    -5.0972  -4.9275  -4.8279  -4.7893  -4.3003  -4.1151  -4.0061  -4.0009
    -3.7034  -3.7011  -3.6451  -3.6336  -3.5506  -3.4358  -3.4202  -3.3936
    -3.3690  -3.3554  -3.1708  -3.1650  -2.8880  -2.8395  -2.8051  -2.7725
    -2.6207  -2.6049  -2.3983  -2.3877  -2.2308  -2.1989  -2.1893  -2.1500
    -2.0840  -2.0589  -1.9322  -1.8639  -1.8290  -1.7821  -1.7219  -1.6380
    -1.5345  -1.4380  -1.4017  -1.2687  -1.2627  -1.2248  -1.1835  -1.1796
    -1.0597  -1.0455  -0.8560  -0.8233  -0.6239  -0.6104   0.3658   0.4692
     1.0285   1.2013   1.2729   1.3536   1.4251   1.5060   2.0045   2.0155
     2.1887   2.2379   2.3575   2.3918   2.4546   2.5913   2.8435   2.8702
     3.0339   3.0420   3.6739   3.7134

     the Fermi energy is     0.1071 ev

!    total energy              =   -9109.84892478 Ry
     total all-electron energy =     -9109.848925 Ry
     estimated scf accuracy    <          7.4E-09 Ry
     smearing contrib. (-TS)   =      -0.00009757 Ry
     internal energy E=F+TS    =   -9109.84882721 Ry

     The total energy is F=E-TS. E is the sum of the following terms:
     one-electron contribution =  -16664.24826346 Ry
     hartree contribution      =    8191.49427742 Ry
     xc contribution           =    -365.17443390 Ry
     ewald contribution        =    5995.82216972 Ry
     one-center paw contrib.   =   -6267.74257698 Ry

     convergence has been achieved in  23 iterations

     negative rho (up, down):  6.549E-02 0.000E+00

     Forces acting on atoms (cartesian axes, Ry/au):

     atom    1 type  1   force =    -0.03679010    0.00000000    0.01696266
     atom    2 type  1   force =     0.00121270    0.00000000    0.00019924
     atom    3 type  1   force =     0.01214936    0.00000000   -0.00017074
     atom    4 type  1   force =    -0.00361053    0.00000000   -0.00076669
     atom    5 type  2   force =    -0.00901199    0.00000000   -0.00226994
     atom    6 type  2   force =     0.00438428    0.00000000    0.00010637
     atom    7 type  2   force =     0.00088266    0.00000000   -0.00043489
     atom    8 type  2   force =    -0.01495228    0.00000000    0.00547088
     atom    9 type  2   force =    -0.00070703    0.00000000   -0.00033935
     atom   10 type  2   force =     0.04120525    0.00000000   -0.02119078
     atom   11 type  3   force =    -0.01518186    0.00000000   -0.00152581
     atom   12 type  3   force =     0.00070070    0.00000000   -0.00025605
     atom   13 type  3   force =    -0.00177163    0.00000000    0.00000460
     atom   14 type  3   force =     0.01817444    0.00000000    0.00162218
     atom   15 type  3   force =     0.00316708    0.00000000   -0.00024902
     atom   16 type  3   force =    -0.00293430    0.00000000    0.00161152
     atom   17 type  3   force =     0.00009992    0.00000000    0.00016195
     atom   18 type  3   force =    -0.03712582    0.00000000    0.02730653
     atom   19 type  3   force =     0.03943748    0.00000000   -0.02598597
     atom   20 type  3   force =     0.00067168    0.00000000   -0.00025669

     Total force =     0.096216     Total SCF correction =     0.000258


     Computing stress (Cartesian axis) and pressure


     negative rho (up, down):  6.549E-02 0.000E+00
          total   stress  (Ry/bohr**3)                   (kbar)     P=        3.36
   0.00007312   0.00000000  -0.00001411           10.76        0.00       -2.08
   0.00000000   0.00001517   0.00000000            0.00        2.23        0.00
  -0.00001411   0.00000000  -0.00001981           -2.08        0.00       -2.91

     Energy error            =      4.3E-02 Ry
     Gradient error          =      4.1E-02 Ry/Bohr

     number of scf cycles    =   2
     number of bfgs steps    =   1

     energy             old  =   -9109.8057566605 Ry
     energy             new  =   -9109.8489247798 Ry

     CASE: energy            _new < energy            _old

     new trust radius        =       0.0780092676 bohr
     new conv_thr            =       0.0000000041 Ry


ATOMIC_POSITIONS (angstrom)
Ta              15.2870386355        0.9149235643       12.4980297083
Ta               6.5757540937        2.7447696811       12.5930719499
Ta               2.2847910886        0.9149235643       12.4447137372
Ta              11.0851849891        2.7447696811       12.5901056739
Ni              12.8543573250        0.9149235643       11.7590318938
Ni               4.0470727778        2.7447696811       13.2738947829
Ni               4.7918539125        0.9149235643       11.7610274452
Ni              13.5943522130        2.7447696811       13.2811480160
Ni               8.8257601229        0.9149235643       12.3679039068
Ni               0.0910056723        2.7447696811       12.6218231309
Te              14.1895601104        2.7447696811       10.5329686354
Te               5.3933842998        0.9149235643       14.5002965841
Te              10.5943205092        0.9149235643       10.5195546427
Te               1.8039234157        2.7447696811       14.5173298018
Te               3.4463731231        2.7447696811       10.5351741749
Te              12.2619329992        0.9149235643       14.5022124573
Te               7.0619325476        0.9149235643       10.5193217078
Te              15.8108036419        2.7447696811       14.5740946539
Te               0.1017543149        0.9149235643       10.7684973314
Te               8.8274065712        2.7447696811       14.1980507656



     Writing config-only to output data dir /ddn/data/physics/eamoujaes/2D-Ta2Ni3Te5/ELASTIC/OUT/ta2ni3te5.save/ :
     XML data file
     NEW-OLD atomic charge density approx. for the potential

     negative rho (up, down):  6.529E-02 0.000E+00

     total cpu time spent up to now is     2072.9 secs

     Self-consistent Calculation

     iteration #  1     ecut=    60.00 Ry     beta= 0.20
     Davidson diagonalization with overlap
     c_bands:  2 eigenvalues not converged
     ethr =  1.00E-06,  avg # of iterations = 10.7

     negative rho (up, down):  6.528E-02 0.000E+00

     total cpu time spent up to now is     2113.7 secs

     total energy              =   -9109.81611927 Ry
     estimated scf accuracy    <       0.11256244 Ry

     iteration #  2     ecut=    60.00 Ry     beta= 0.20
     Davidson diagonalization with overlap
     ethr =  5.12E-05,  avg # of iterations =  3.9

     negative rho (up, down):  6.528E-02 0.000E+00

     total cpu time spent up to now is     2151.0 secs

     total energy              =   -9109.70706444 Ry
     estimated scf accuracy    <       4.04758880 Ry

     iteration #  3     ecut=    60.00 Ry     beta= 0.20
     Davidson diagonalization with overlap
     ethr =  5.12E-05,  avg # of iterations =  3.1

     negative rho (up, down):  6.529E-02 0.000E+00

     total cpu time spent up to now is     2188.2 secs

     total energy              =   -9109.85679295 Ry
     estimated scf accuracy    <       0.06412063 Ry

     iteration #  4     ecut=    60.00 Ry     beta= 0.20
     Davidson diagonalization with overlap
     ethr =  2.91E-05,  avg # of iterations =  1.3

     negative rho (up, down):  6.531E-02 0.000E+00

     total cpu time spent up to now is     2225.0 secs

     total energy              =   -9109.85952643 Ry
     estimated scf accuracy    <       0.00630467 Ry

     iteration #  5     ecut=    60.00 Ry     beta= 0.20
     Davidson diagonalization with overlap
     c_bands:  1 eigenvalues not converged
     ethr =  2.87E-06,  avg # of iterations =  3.5

     negative rho (up, down):  6.532E-02 0.000E+00

     total cpu time spent up to now is     2262.1 secs

     total energy              =   -9109.85953075 Ry
     estimated scf accuracy    <       0.00120910 Ry

     iteration #  6     ecut=    60.00 Ry     beta= 0.20
     Davidson diagonalization with overlap
     ethr =  5.50E-07,  avg # of iterations =  2.5

     negative rho (up, down):  6.532E-02 0.000E+00

     total cpu time spent up to now is     2299.5 secs

     total energy              =   -9109.85962525 Ry
     estimated scf accuracy    <       0.00130800 Ry

     iteration #  7     ecut=    60.00 Ry     beta= 0.20
     Davidson diagonalization with overlap
     ethr =  5.50E-07,  avg # of iterations =  1.0

     negative rho (up, down):  6.533E-02 0.000E+00

     total cpu time spent up to now is     2336.3 secs

     total energy              =   -9109.85938696 Ry
     estimated scf accuracy    <       0.00198103 Ry

     iteration #  8     ecut=    60.00 Ry     beta= 0.20
     Davidson diagonalization with overlap
     ethr =  5.50E-07,  avg # of iterations =  1.0

     negative rho (up, down):  6.533E-02 0.000E+00

     total cpu time spent up to now is     2373.0 secs

     total energy              =   -9109.85922761 Ry
     estimated scf accuracy    <       0.00186909 Ry

     iteration #  9     ecut=    60.00 Ry     beta= 0.20
     Davidson diagonalization with overlap
     ethr =  5.50E-07,  avg # of iterations =  1.1

     negative rho (up, down):  6.533E-02 0.000E+00

     total cpu time spent up to now is     2410.4 secs

     total energy              =   -9109.85917457 Ry
     estimated scf accuracy    <       0.00105531 Ry

     iteration # 10     ecut=    60.00 Ry     beta= 0.20
     Davidson diagonalization with overlap
     ethr =  4.80E-07,  avg # of iterations =  1.0

     negative rho (up, down):  6.534E-02 0.000E+00

     total cpu time spent up to now is     2447.4 secs

     total energy              =   -9109.85913623 Ry
     estimated scf accuracy    <       0.00059875 Ry

     iteration # 11     ecut=    60.00 Ry     beta= 0.20
     Davidson diagonalization with overlap
     ethr =  2.72E-07,  avg # of iterations =  1.0

     negative rho (up, down):  6.534E-02 0.000E+00

     total cpu time spent up to now is     2484.6 secs

     total energy              =   -9109.85911996 Ry
     estimated scf accuracy    <       0.00029979 Ry

     iteration # 12     ecut=    60.00 Ry     beta= 0.20
     Davidson diagonalization with overlap
     ethr =  1.36E-07,  avg # of iterations =  1.6

     negative rho (up, down):  6.534E-02 0.000E+00

     total cpu time spent up to now is     2521.7 secs

     total energy              =   -9109.85912072 Ry
     estimated scf accuracy    <       0.00003997 Ry

     iteration # 13     ecut=    60.00 Ry     beta= 0.20
     Davidson diagonalization with overlap
     ethr =  1.82E-08,  avg # of iterations =  2.2

     negative rho (up, down):  6.534E-02 0.000E+00

     total cpu time spent up to now is     2559.1 secs

     total energy              =   -9109.85911780 Ry
     estimated scf accuracy    <       0.00001851 Ry

     iteration # 14     ecut=    60.00 Ry     beta= 0.20
     Davidson diagonalization with overlap
     ethr =  8.41E-09,  avg # of iterations =  2.0

     negative rho (up, down):  6.534E-02 0.000E+00

     total cpu time spent up to now is     2596.2 secs

     total energy              =   -9109.85911858 Ry
     estimated scf accuracy    <       0.00000354 Ry

     iteration # 15     ecut=    60.00 Ry     beta= 0.20
     Davidson diagonalization with overlap
     ethr =  1.61E-09,  avg # of iterations =  3.8

     negative rho (up, down):  6.534E-02 0.000E+00

     total cpu time spent up to now is     2634.2 secs

     total energy              =   -9109.85911881 Ry
     estimated scf accuracy    <       0.00000176 Ry

     iteration # 16     ecut=    60.00 Ry     beta= 0.20
     Davidson diagonalization with overlap
     ethr =  8.00E-10,  avg # of iterations =  1.3

     negative rho (up, down):  6.534E-02 0.000E+00

     total cpu time spent up to now is     2671.0 secs

     total energy              =   -9109.85911893 Ry
     estimated scf accuracy    <       0.00000088 Ry

     iteration # 17     ecut=    60.00 Ry     beta= 0.20
     Davidson diagonalization with overlap
     ethr =  3.99E-10,  avg # of iterations =  2.1

     negative rho (up, down):  6.534E-02 0.000E+00

     total cpu time spent up to now is     2708.6 secs

     total energy              =   -9109.85911902 Ry
     estimated scf accuracy    <       0.00000054 Ry

     iteration # 18     ecut=    60.00 Ry     beta= 0.20
     Davidson diagonalization with overlap
     ethr =  2.45E-10,  avg # of iterations =  2.0

     negative rho (up, down):  6.534E-02 0.000E+00

     total cpu time spent up to now is     2745.6 secs

     total energy              =   -9109.85911900 Ry
     estimated scf accuracy    <       0.00000027 Ry

     iteration # 19     ecut=    60.00 Ry     beta= 0.20
     Davidson diagonalization with overlap
     ethr =  1.21E-10,  avg # of iterations =  1.8

     negative rho (up, down):  6.534E-02 0.000E+00

     total cpu time spent up to now is     2783.5 secs

     total energy              =   -9109.85911896 Ry
     estimated scf accuracy    <       0.00000019 Ry

     iteration # 20     ecut=    60.00 Ry     beta= 0.20
     Davidson diagonalization with overlap
     ethr =  8.43E-11,  avg # of iterations =  2.0

     negative rho (up, down):  6.534E-02 0.000E+00

     total cpu time spent up to now is     2820.6 secs

     total energy              =   -9109.85911898 Ry
     estimated scf accuracy    <       0.00000005 Ry

     iteration # 21     ecut=    60.00 Ry     beta= 0.20
     Davidson diagonalization with overlap
     ethr =  2.11E-11,  avg # of iterations =  2.0

     negative rho (up, down):  6.534E-02 0.000E+00

     total cpu time spent up to now is     2858.1 secs

     total energy              =   -9109.85911898 Ry
     estimated scf accuracy    <       0.00000002 Ry

     iteration # 22     ecut=    60.00 Ry     beta= 0.20
     Davidson diagonalization with overlap
     ethr =  9.74E-12,  avg # of iterations =  2.0

     negative rho (up, down):  6.534E-02 0.000E+00

     total cpu time spent up to now is     2895.8 secs

     total energy              =   -9109.85911898 Ry
     estimated scf accuracy    <          8.5E-09 Ry

     iteration # 23     ecut=    60.00 Ry     beta= 0.20
     Davidson diagonalization with overlap
     ethr =  3.85E-12,  avg # of iterations =  2.0

     negative rho (up, down):  6.534E-02 0.000E+00

     total cpu time spent up to now is     2932.8 secs

     total energy              =   -9109.85911898 Ry
     estimated scf accuracy    <          4.6E-09 Ry

     iteration # 24     ecut=    60.00 Ry     beta= 0.20
     Davidson diagonalization with overlap
     ethr =  2.08E-12,  avg # of iterations =  1.8

     negative rho (up, down):  6.534E-02 0.000E+00

     total cpu time spent up to now is     2969.4 secs

     End of self-consistent calculation

          k = 0.0000 0.0000 0.0000 ( 84049 PWs)   bands (ev):

  -103.3367-103.3121-103.2697-103.2575-102.9925-102.8625 -68.5759 -68.5691
   -68.5290 -68.4580 -63.9029 -63.8927 -63.8429 -63.8386 -63.7451 -63.6754
   -63.6722 -63.6308 -63.6165 -63.5887 -63.5660 -63.5243 -63.4854 -63.4537
   -63.3695 -63.3269 -63.2873 -63.1371 -35.0716 -35.0671 -35.0370 -35.0069
   -35.0044 -35.0002 -34.9998 -34.9964 -34.9693 -34.9676 -34.9138 -34.9031
   -12.9656 -12.5982 -12.5340 -12.1360 -11.9839 -11.8412 -11.7041 -11.6801
   -11.5458 -11.3566  -6.2040  -5.8650  -5.7078  -5.6675  -5.4699  -5.3533
    -5.3285  -4.7590  -4.6208  -4.1510  -4.0932  -3.8357  -3.7515  -3.7079
    -3.6629  -3.5780  -3.5722  -3.5502  -3.2849  -3.1907  -2.9421  -2.8337
    -2.7288  -2.7015  -2.6535  -2.5559  -2.5510  -2.3867  -2.3282  -2.2542
    -2.2143  -2.1684  -2.0544  -1.9380  -1.9263  -1.9087  -1.8767  -1.7681
    -1.6860  -1.6419  -1.4337  -1.3924  -1.3333  -1.2449  -1.2441  -1.1875
    -1.0913  -1.0802  -1.0267  -0.9906  -0.9537  -0.7864  -0.6424  -0.5878
    -0.5684  -0.3735  -0.3471  -0.2246  -0.2168   0.1061   0.1426   0.1841
     0.9159   0.9478   1.1515   1.2285   1.3098   1.5475   1.6718   1.7332
     1.8397   2.1411   2.3134   2.3202   2.4942   2.7993   3.1651   3.3496
     3.4330   3.4677   3.4765   3.5365

          k = 0.0000 0.4724 0.0000 ( 84013 PWs)   bands (ev):

  -103.3366-103.3122-103.2694-103.2578-102.9925-102.8625 -68.5757 -68.5690
   -68.5288 -68.4579 -63.9029 -63.8928 -63.8428 -63.8388 -63.7446 -63.6750
   -63.6746 -63.6281 -63.6193 -63.5890 -63.5635 -63.5247 -63.4854 -63.4536
   -63.3695 -63.3268 -63.2873 -63.1372 -35.0707 -35.0662 -35.0360 -35.0114
   -35.0068 -35.0061 -34.9995 -34.9954 -34.9747 -34.9686 -34.9131 -34.9103
   -12.8712 -12.5055 -12.4503 -12.0845 -11.9154 -11.7970 -11.6442 -11.6253
   -11.4926 -11.3212  -6.1151  -5.7826  -5.6106  -5.5751  -5.4014  -5.2747
    -5.2332  -4.6860  -4.5541  -4.1177  -4.0743  -3.9380  -3.8341  -3.8099
    -3.7056  -3.6520  -3.6296  -3.5475  -3.2572  -3.1908  -3.0299  -2.9608
    -2.7879  -2.7730  -2.7364  -2.6762  -2.6583  -2.5430  -2.4723  -2.2774
    -2.1825  -2.1413  -2.0994  -2.0626  -2.0406  -2.0014  -1.8721  -1.7735
    -1.7296  -1.6779  -1.6441  -1.5188  -1.4858  -1.4391  -1.3414  -1.3367
    -1.2661  -1.2117  -1.1217  -0.9221  -0.8670  -0.8572  -0.8113  -0.5851
    -0.5272  -0.4546  -0.4351  -0.2667  -0.1062  -0.0252   0.2757   0.4313
     0.7395   0.9069   1.1339   1.1825   1.2907   1.4406   1.5524   1.7850
     1.8702   2.0484   2.0607   2.2008   2.5382   2.7228   2.7892   2.8981
     3.0191   3.1348   3.4618   3.6893

          k = 0.0000 0.9448 0.0000 ( 83987 PWs)   bands (ev):

  -103.3362-103.3125-103.2687-103.2585-102.9925-102.8625 -68.5753 -68.5685
   -68.5284 -68.4574 -63.9030 -63.8930 -63.8427 -63.8391 -63.7430 -63.6814
   -63.6721 -63.6264 -63.6220 -63.5902 -63.5575 -63.5260 -63.4855 -63.4537
   -63.3695 -63.3269 -63.2874 -63.1372 -35.0683 -35.0639 -35.0336 -35.0296
   -35.0251 -35.0041 -34.9976 -34.9931 -34.9930 -34.9667 -34.9289 -34.9111
   -12.6014 -12.2414 -12.2157 -11.9384 -11.7339 -11.6805 -11.4760 -11.4675
   -11.3515 -11.2270  -5.8979  -5.5714  -5.3854  -5.3494  -5.2241  -5.0624
[...]
     1.9132   1.9549   1.9587   2.1927   2.2897   2.4941   2.5659   2.7003
     2.8476   2.8888   3.8514   4.0091

          k = 0.0000 1.4171 0.0000 ( 83873 PWs)   bands (ev):

  -103.3082-103.3061-103.3014-103.2921-102.9129-102.9085 -68.5412 -68.5399
   -68.5397 -68.5387 -63.8818 -63.8808 -63.8791 -63.8688 -63.7065 -63.7015
   -63.6751 -63.6686 -63.5949 -63.5907 -63.5741 -63.5670 -63.4124 -63.4095
   -63.3754 -63.3710 -63.1965 -63.1905 -35.0445 -35.0436 -35.0424 -35.0417
   -35.0233 -35.0224 -35.0217 -35.0208 -34.9758 -34.9730 -34.9705 -34.9678
   -12.1499 -11.8690 -11.8536 -11.6698 -11.5286 -11.5047 -11.2681 -11.2204
   -11.1824 -11.1126  -5.7544  -5.4700  -5.3767  -5.3263  -5.0263  -4.9994
    -4.8910  -4.8077  -4.6702  -4.5200  -4.3949  -4.3170  -4.2056  -4.0091
    -3.9955  -3.9447  -3.8559  -3.7407  -3.6898  -3.5228  -3.3985  -3.3385
    -3.2908  -3.1531  -3.0229  -3.0009  -2.9693  -2.8341  -2.6545  -2.6073
    -2.5792  -2.5720  -2.4264  -2.3562  -2.1491  -2.0989  -2.0837  -2.0799
    -2.0739  -1.9305  -1.9021  -1.8427  -1.6780  -1.6159  -1.5540  -1.4809
    -1.4056  -1.3801  -1.3410  -1.2698  -1.0493  -1.0414  -1.0154  -0.9550
    -0.8011  -0.7496  -0.7278  -0.5223  -0.4848  -0.4683   0.5621   0.6695
     0.9412   1.0533   1.1006   1.2565   1.4063   1.4280   1.5493   1.5776
     1.8803   1.9855   2.0147   2.3077   2.3499   2.5375   2.6839   2.8171
     2.9649   3.0961   3.6356   3.7212

          k = 0.0000 1.8895 0.0000 ( 83723 PWs)   bands (ev):

  -103.3067-103.3055-103.3029-103.2927-102.9129-102.9085 -68.5408 -68.5395
   -68.5393 -68.5383 -63.8815 -63.8809 -63.8797 -63.8690 -63.7004 -63.6960
   -63.6843 -63.6772 -63.5879 -63.5847 -63.5774 -63.5694 -63.4124 -63.4095
   -63.3754 -63.3710 -63.1963 -63.1904 -35.0426 -35.0417 -35.0411 -35.0407
   -35.0402 -35.0399 -35.0391 -35.0384 -34.9730 -34.9715 -34.9682 -34.9667
   -11.7025 -11.6003 -11.4493 -11.4117 -11.3839 -11.3056 -11.1177 -11.1072
   -11.0157 -10.9978  -5.9886  -5.9340  -5.8917  -5.8487  -5.2055  -5.1713
    -5.0185  -4.9174  -4.7694  -4.6039  -4.3471  -4.2402  -4.2377  -3.9444
    -3.9392  -3.7461  -3.6666  -3.5963  -3.5391  -3.5309  -3.3811  -3.3419
    -3.3311  -3.2934  -3.2309  -3.1794  -2.9193  -2.8887  -2.7939  -2.7387
    -2.5916  -2.5022  -2.4974  -2.4280  -2.1662  -2.1338  -2.1122  -2.0985
    -2.0776  -2.0335  -1.9765  -1.8902  -1.8255  -1.7466  -1.7123  -1.6041
    -1.4276  -1.3760  -1.3738  -1.3597  -1.2031  -1.1878  -1.1102  -1.0801
    -0.9472  -0.8487  -0.8300  -0.6792  -0.6612  -0.6457   0.4141   0.4866
     1.0782   1.1235   1.2041   1.2086   1.4307   1.7919   1.9220   1.9344
     1.9789   2.0300   2.2288   2.2481   2.3978   2.6491   2.9017   2.9180
     3.1041   3.2908   3.3752   3.4642

          k = 0.0000-2.3619 0.0000 ( 83678 PWs)   bands (ev):

  -103.3054-103.3053-103.3041-103.2929-102.9129-102.9085 -68.5407 -68.5393
   -68.5391 -68.5381 -63.8813 -63.8809 -63.8800 -63.8691 -63.6931 -63.6924
   -63.6918 -63.6822 -63.5827 -63.5820 -63.5815 -63.5709 -63.4125 -63.4095
   -63.3754 -63.3710 -63.1961 -63.1902 -35.0486 -35.0478 -35.0467 -35.0460
   -35.0411 -35.0403 -35.0389 -35.0384 -34.9716 -34.9712 -34.9670 -34.9667
   -11.4918 -11.4851 -11.2522 -11.2520 -11.2369 -11.2354 -11.1410 -11.1392
   -10.9529 -10.9507  -6.1483  -6.1477  -6.1385  -6.1365  -5.3895  -5.3876
    -5.0147  -5.0145  -4.7760  -4.7726  -4.1384  -4.1347  -3.9320  -3.9309
    -3.8317  -3.8304  -3.5265  -3.5246  -3.4305  -3.4295  -3.4292  -3.4253
    -3.3799  -3.3797  -3.1133  -3.1114  -3.0071  -3.0049  -2.8551  -2.8541
    -2.5198  -2.5197  -2.3893  -2.3883  -2.2046  -2.2031  -2.1098  -2.1084
    -2.0900  -2.0872  -1.8853  -1.8797  -1.8415  -1.8392  -1.7685  -1.7648
    -1.4289  -1.4253  -1.3021  -1.2999  -1.2452  -1.2432  -1.1586  -1.1559
    -1.0639  -1.0614  -0.8560  -0.8552  -0.6433  -0.6406   0.4118   0.4132
     1.1294   1.1295   1.2179   1.2188   1.5034   1.5048   1.9525   1.9539
     2.2745   2.2753   2.4183   2.4228   2.5073   2.5074   2.8513   2.8548
     3.1110   3.1127   3.4414   3.4437

          k =-0.5000 0.0000 0.0000 ( 84004 PWs)   bands (ev):

  -103.3106-103.3076-103.2990-103.2907-102.9129-102.9085 -68.5424 -68.5410
   -68.5408 -68.5398 -63.8823 -63.8808 -63.8782 -63.8683 -63.7139 -63.7086
   -63.6554 -63.6489 -63.6113 -63.6068 -63.5702 -63.5637 -63.4124 -63.4095
   -63.3754 -63.3710 -63.1963 -63.1904 -35.0508 -35.0499 -35.0486 -35.0480
   -34.9813 -34.9804 -34.9753 -34.9742 -34.9740 -34.9734 -34.9729 -34.9725
   -12.8305 -12.8272 -12.1809 -12.1794 -12.0179 -12.0136 -11.6551 -11.6511
   -11.4364 -11.4351  -6.0712  -6.0677  -5.6884  -5.6860  -5.3531  -5.3488
    -4.9744  -4.9706  -4.5475  -4.5449  -3.8409  -3.8366  -3.6912  -3.6862
    -3.6242  -3.6172  -3.4562  -3.4526  -3.2158  -3.2088  -3.0780  -3.0713
    -2.7606  -2.7551  -2.5733  -2.5696  -2.5069  -2.5035  -2.2593  -2.2540
    -2.1225  -2.1214  -1.9690  -1.9642  -1.9354  -1.9319  -1.7519  -1.7507
    -1.6400  -1.6347  -1.5096  -1.5077  -1.2756  -1.2713  -1.1137  -1.1091
    -1.0864  -1.0828  -1.0500  -1.0451  -0.8977  -0.8954  -0.5749  -0.5733
    -0.5418  -0.5394  -0.2763  -0.2741  -0.0461  -0.0453   0.1529   0.1538
     1.0804   1.0828   1.1119   1.1143   1.4371   1.4378   1.5084   1.5108
     1.9923   1.9948   2.4079   2.4100   2.5318   2.5348   3.3216   3.3227
     3.3513   3.3531   3.6261   3.6284

          k =-0.5000 0.4724 0.0000 ( 84034 PWs)   bands (ev):

  -103.3103-103.3074-103.2993-103.2909-102.9129-102.9085 -68.5422 -68.5408
   -68.5406 -68.5396 -63.8823 -63.8808 -63.8783 -63.8684 -63.7132 -63.7079
   -63.6585 -63.6521 -63.6086 -63.6041 -63.5707 -63.5641 -63.4124 -63.4095
   -63.3755 -63.3711 -63.1964 -63.1905 -35.0499 -35.0489 -35.0477 -35.0471
   -34.9825 -34.9814 -34.9811 -34.9804 -34.9799 -34.9792 -34.9728 -34.9719
   -12.7369 -12.7336 -12.1003 -12.0988 -11.9690 -11.9646 -11.6021 -11.5982
   -11.3929 -11.3916  -5.9822  -5.9785  -5.5953  -5.5930  -5.2699  -5.2654
    -4.9056  -4.9019  -4.4942  -4.4917  -3.9327  -3.9282  -3.7846  -3.7815
    -3.6018  -3.5977  -3.4397  -3.4366  -3.3478  -3.3445  -3.0036  -2.9976
    -2.8871  -2.8831  -2.7345  -2.7290  -2.6011  -2.5976  -2.3187  -2.3158
    -2.1567  -2.1541  -2.0824  -2.0809  -1.9204  -1.9182  -1.8328  -1.8308
    -1.7266  -1.7206  -1.5780  -1.5752  -1.4946  -1.4910  -1.3441  -1.3404
    -1.1747  -1.1697  -1.0378  -1.0359  -0.8585  -0.8569  -0.6902  -0.6866
    -0.5135  -0.5116  -0.4074  -0.4052  -0.0054  -0.0044   0.3339   0.3355
     0.8416   0.8429   1.2436   1.2469   1.3661   1.3682   1.5147   1.5167
     1.8802   1.8835   2.2314   2.2345   2.4849   2.4865   2.8946   2.8954
     3.0325   3.0352   3.6002   3.6007

          k =-0.5000 0.9448 0.0000 ( 83968 PWs)   bands (ev):

  -103.3095-103.3068-103.3001-103.2914-102.9129-102.9085 -68.5418 -68.5404
   -68.5402 -68.5392 -63.8821 -63.8808 -63.8787 -63.8686 -63.7108 -63.7056
   -63.6659 -63.6596 -63.6023 -63.5978 -63.5719 -63.5651 -63.4124 -63.4095
   -63.3754 -63.3710 -63.1965 -63.1905 -35.0475 -35.0466 -35.0453 -35.0447
   -35.0007 -34.9997 -34.9993 -34.9983 -34.9781 -34.9772 -34.9712 -34.9704
   -12.4694 -12.4662 -11.8757 -11.8741 -11.8335 -11.8292 -11.4614 -11.4577
   -11.2728 -11.2717  -5.7581  -5.7541  -5.3548  -5.3528  -5.0698  -5.0654
    -4.8168  -4.8146  -4.3995  -4.3969  -4.1565  -4.1532  -4.0300  -4.0275
    -3.6636  -3.6613  -3.5742  -3.5722  -3.5356  -3.5329  -3.2279  -3.2217
    -3.1601  -3.1573  -2.9058  -2.9016  -2.6623  -2.6583  -2.6013  -2.5976
    -2.3889  -2.3885  -2.3152  -2.3143  -2.0706  -2.0672  -1.9962  -1.9936
    -1.8512  -1.8491  -1.7368  -1.7330  -1.5452  -1.5404  -1.4331  -1.4306
    -1.2569  -1.2513  -1.2122  -1.2092  -0.9806  -0.9780  -0.8419  -0.8367
    -0.7039  -0.7023  -0.3675  -0.3655  -0.2288  -0.2279   0.6084   0.6096
     0.8913   0.8936   1.1433   1.1440   1.3339   1.3373   1.5285   1.5307
     1.6873   1.6891   2.0776   2.0820   2.4392   2.4398   2.6496   2.6524
     2.8144   2.8151   3.9359   3.9366

          k =-0.5000 1.4171 0.0000 ( 83910 PWs)   bands (ev):

  -103.3082-103.3061-103.3014-103.2921-102.9129-102.9085 -68.5412 -68.5399
   -68.5397 -68.5387 -63.8818 -63.8809 -63.8792 -63.8688 -63.7066 -63.7016
   -63.6751 -63.6686 -63.5950 -63.5908 -63.5741 -63.5670 -63.4124 -63.4095
   -63.3755 -63.3711 -63.1965 -63.1906 -35.0445 -35.0436 -35.0423 -35.0418
   -35.0233 -35.0224 -35.0217 -35.0208 -34.9751 -34.9743 -34.9692 -34.9685
   -12.0737 -12.0705 -11.6468 -11.6425 -11.5656 -11.5648 -11.2849 -11.2816
   -11.1148 -11.1137  -5.6424  -5.6385  -5.2524  -5.2484  -5.1185  -5.1169
    -4.9099  -4.9063  -4.5177  -4.5147  -4.3960  -4.3922  -4.0563  -4.0535
    -3.9445  -3.9426  -3.8064  -3.8033  -3.5611  -3.5593  -3.4630  -3.4596
    -3.1261  -3.1244  -3.0139  -3.0084  -2.9216  -2.9180  -2.7430  -2.7409
    -2.5146  -2.5117  -2.4203  -2.4182  -2.1602  -2.1582  -2.0670  -2.0631
    -2.0169  -2.0141  -1.8845  -1.8841  -1.5618  -1.5530  -1.5282  -1.5252
    -1.3848  -1.3831  -1.3402  -1.3361  -1.0545  -1.0503  -0.9924  -0.9899
    -0.8076  -0.8066  -0.5908  -0.5886  -0.4696  -0.4667   0.5818   0.5827
     1.0935   1.0942   1.2450   1.2459   1.4196   1.4202   1.5411   1.5416
     1.8230   1.8268   2.0714   2.0751   2.5761   2.5780   2.7555   2.7562
     2.9162   2.9175   3.7565   3.7585

          k =-0.5000 1.8895 0.0000 ( 83762 PWs)   bands (ev):

  -103.3067-103.3055-103.3029-103.2927-102.9129-102.9085 -68.5408 -68.5395
   -68.5393 -68.5383 -63.8815 -63.8809 -63.8798 -63.8690 -63.7004 -63.6960
   -63.6843 -63.6773 -63.5880 -63.5847 -63.5774 -63.5694 -63.4124 -63.4095
   -63.3754 -63.3710 -63.1963 -63.1904 -35.0426 -35.0417 -35.0411 -35.0406
   -35.0402 -35.0399 -35.0391 -35.0384 -34.9726 -34.9720 -34.9676 -34.9671
   -11.6599 -11.6556 -11.4527 -11.4499 -11.2998 -11.2989 -11.1418 -11.1391
   -10.9979 -10.9964  -6.0251  -6.0249  -5.7701  -5.7670  -5.2431  -5.2400
    -4.9804  -4.9761  -4.6827  -4.6775  -4.3142  -4.3110  -4.0958  -4.0920
    -3.8470  -3.8454  -3.6619  -3.6589  -3.4872  -3.4844  -3.3646  -3.3641
    -3.2820  -3.2815  -3.1091  -3.1055  -2.9665  -2.9620  -2.7516  -2.7482
    -2.6314  -2.6286  -2.3884  -2.3867  -2.2450  -2.2426  -2.1142  -2.1125
    -2.0440  -2.0421  -1.9722  -1.9690  -1.6966  -1.6919  -1.6387  -1.6280
    -1.4444  -1.4429  -1.3726  -1.3695  -1.2086  -1.2059  -1.0646  -1.0613
    -0.9546  -0.9529  -0.7691  -0.7639  -0.6206  -0.6174   0.4492   0.4501
     1.0868   1.0874   1.3841   1.3851   1.5115   1.5124   1.9420   1.9443
     1.9740   1.9747   2.1976   2.2006   2.4670   2.4688   2.9298   2.9322
     3.1512   3.1529   3.4335   3.4352

          k =-0.5000-2.3619 0.0000 ( 83684 PWs)   bands (ev):

  -103.3054-103.3053-103.3041-103.2929-102.9129-102.9085 -68.5407 -68.5393
   -68.5391 -68.5381 -63.8813 -63.8808 -63.8800 -63.8690 -63.6932 -63.6924
   -63.6919 -63.6822 -63.5828 -63.5820 -63.5815 -63.5709 -63.4124 -63.4095
   -63.3755 -63.3711 -63.1962 -63.1902 -35.0486 -35.0478 -35.0468 -35.0460
   -35.0411 -35.0403 -35.0389 -35.0384 -34.9716 -34.9712 -34.9670 -34.9667
   -11.4917 -11.4850 -11.2517 -11.2515 -11.2355 -11.2340 -11.1449 -11.1429
   -10.9510 -10.9488  -6.2620  -6.2617  -5.9934  -5.9900  -5.4162  -5.4130
    -4.9957  -4.9940  -4.8191  -4.8142  -4.0860  -4.0816  -4.0473  -4.0466
    -3.7080  -3.7071  -3.5930  -3.5909  -3.5119  -3.5095  -3.3782  -3.3772
    -3.3550  -3.3550  -3.1688  -3.1671  -2.8562  -2.8518  -2.8067  -2.8047
    -2.5940  -2.5922  -2.3882  -2.3875  -2.2151  -2.2141  -2.1949  -2.1946
    -2.0854  -2.0837  -1.8794  -1.8793  -1.8059  -1.8031  -1.7067  -1.6956
    -1.4901  -1.4900  -1.2968  -1.2940  -1.2802  -1.2777  -1.1076  -1.1037
    -1.1019  -1.0984  -0.8541  -0.8532  -0.6374  -0.6344   0.4182   0.4196
     1.1127   1.1127   1.3482   1.3497   1.4262   1.4273   2.0090   2.0117
     2.2028   2.2047   2.3728   2.3745   2.5055   2.5058   2.8512   2.8529
     3.0153   3.0167   3.6570   3.6665

     the Fermi energy is     0.1171 ev

!    total energy              =   -9109.86891891 Ry
     total all-electron energy =     -9109.868919 Ry
     estimated scf accuracy    <          5.0E-11 Ry
     smearing contrib. (-TS)   =      -0.00009098 Ry
     internal energy E=F+TS    =   -9109.86882794 Ry

     The total energy is F=E-TS. E is the sum of the following terms:
     one-electron contribution =  -16639.39927733 Ry
     hartree contribution      =    8179.04971912 Ry
     xc contribution           =    -365.09068743 Ry
     ewald contribution        =    5983.31155226 Ry
     one-center paw contrib.   =   -6267.74013455 Ry

     convergence has been achieved in  17 iterations

     negative rho (up, down):  6.529E-02 0.000E+00

     Forces acting on atoms (cartesian axes, Ry/au):

     atom    1 type  1   force =    -0.00093055    0.00000000    0.00009823
     atom    2 type  1   force =     0.00011183    0.00000000    0.00001660
     atom    3 type  1   force =    -0.00013440    0.00000000   -0.00016040
     atom    4 type  1   force =     0.00046414    0.00000000   -0.00015739
     atom    5 type  2   force =    -0.00012673    0.00000000   -0.00011163
     atom    6 type  2   force =     0.00002799    0.00000000   -0.00018490
     atom    7 type  2   force =    -0.00017742    0.00000000   -0.00014205
     atom    8 type  2   force =    -0.00006916    0.00000000   -0.00039001
     atom    9 type  2   force =    -0.00012179    0.00000000    0.00020710
     atom   10 type  2   force =     0.00003330    0.00000000    0.00058696
     atom   11 type  3   force =     0.00016471    0.00000000    0.00027030
     atom   12 type  3   force =     0.00005350    0.00000000   -0.00002716
     atom   13 type  3   force =     0.00003141    0.00000000    0.00007963
     atom   14 type  3   force =     0.00039092    0.00000000    0.00022725
     atom   15 type  3   force =    -0.00025611    0.00000000    0.00002085
     atom   16 type  3   force =     0.00037217    0.00000000   -0.00016505
     atom   17 type  3   force =    -0.00001050    0.00000000   -0.00008511
     atom   18 type  3   force =    -0.00070092    0.00000000    0.00011731
     atom   19 type  3   force =     0.00064145    0.00000000   -0.00027831
     atom   20 type  3   force =     0.00023616    0.00000000    0.00007777

     Total force =     0.001860     Total SCF correction =     0.000040


     Computing stress (Cartesian axis) and pressure


     negative rho (up, down):  6.529E-02 0.000E+00
          total   stress  (Ry/bohr**3)                   (kbar)     P=        1.42
   0.00005717   0.00000000  -0.00000000            8.41        0.00       -0.00
   0.00000000   0.00001124   0.00000000            0.00        1.65        0.00
  -0.00000000   0.00000000  -0.00003954           -0.00        0.00       -5.82

     Energy error            =      9.4E-06 Ry
     Gradient error          =      9.3E-04 Ry/Bohr

     bfgs converged in  18 scf cycles and  17 bfgs steps
     (criteria: energy <  1.0E-04 Ry, force <  1.0E-03 Ry/Bohr)

     End of BFGS Geometry Optimization

     Final energy             =   -9109.8689189143 Ry

     File /ddn/data/physics/eamoujaes/2D-Ta2Ni3Te5/ELASTIC/OUT/ta2ni3te5.bfgs deleted, as requested
Begin final coordinates

ATOMIC_POSITIONS (angstrom)
Ta              15.2597205329        0.9149235643       12.4646234326
Ta               6.6121420325        2.7447696811       12.5708457006
Ta               2.3645930476        0.9149235643       12.4546672540
Ta              11.0085193521        2.7447696811       12.5810506871
Ni              12.7741014868        0.9149235643       11.7658660074
Ni               4.1282139054        2.7447696811       13.2751509047
Ni               4.8492188313        0.9149235643       11.7508603418
Ni              13.4935133646        2.7447696811       13.2910975439
Ni               8.8104743546        0.9149235643       12.3830091954
Ni               0.1666720817        2.7447696811       12.6452177414
Te              14.0969875526        2.7447696811       10.5367465110
Te               5.4539737372        0.9149235643       14.5013795465
Te              10.5391200138        0.9149235643       10.5004197270
Te               1.8904409456        2.7447696811       14.5332452756
Te               3.5230038494        2.7447696811       10.5242232722
Te              12.1620923164        0.9149235643       14.5140853122
Te               7.0887554436        0.9149235643       10.4927681241
Te              15.7375398710        2.7447696811       14.5416451006
Te               0.1632253160        0.9149235643       10.7953385430
Te               8.8062543281        2.7447696811       14.2360107788
End final coordinates



     Writing all to output data dir /ddn/data/physics/eamoujaes/2D-Ta2Ni3Te5/ELASTIC/OUT/ta2ni3te5.save/ :
     XML data file, charge density, pseudopotentials, collected wavefunctions
 
     init_run     :     51.00s CPU     63.52s WALL (       1 calls)
     electrons    :  10821.56s CPU  14023.65s WALL (      18 calls)
     update_pot   :    455.54s CPU    584.03s WALL (      17 calls)
     forces       :     31.68s CPU     39.62s WALL (      18 calls)
     stress       :     54.86s CPU     86.62s WALL (      18 calls)

     Called by init_run:
     wfcinit      :      5.45s CPU      7.05s WALL (       1 calls)
     potinit      :     41.03s CPU     50.67s WALL (       1 calls)
     hinit0       :      2.58s CPU      3.02s WALL (       1 calls)

     Called by electrons:
     c_bands      :    709.37s CPU   1037.28s WALL (     377 calls)
     sum_band     :    320.07s CPU    403.67s WALL (     377 calls)
     v_of_rho     :    132.04s CPU    177.17s WALL (     387 calls)
     newd         :     27.19s CPU     44.57s WALL (     387 calls)
                                       44.56s GPU  (     387 calls)
     PAW_pot      :  10438.91s CPU  13385.14s WALL (     404 calls)
     mix_rho      :     40.52s CPU     75.99s WALL (     377 calls)

     Called by c_bands:
     init_us_2    :     71.65s CPU     89.41s WALL (    9696 calls)
     init_us_2:cp :     60.39s CPU     76.38s WALL (     204 calls)
     init_us_2:gp :     11.02s CPU     12.77s WALL (    9492 calls)
     cegterg      :    395.78s CPU    677.54s WALL (    4524 calls)

     Called by *egterg:
     cdiaghg      :     38.22s CPU     61.26s WALL (   15027 calls)
                                       61.18s GPU  (   15027 calls)
     h_psi        :    277.55s CPU    481.93s WALL (   15339 calls)
                                      480.69s GPU  (   15339 calls)
     s_psi        :      6.88s CPU      9.53s WALL (   15339 calls)
     g_psi        :      0.04s CPU      4.38s WALL (   10803 calls)
                                        4.32s GPU  (   10803 calls)

     Called by h_psi:
     h_psi:calbec :      0.49s CPU     20.06s WALL (   15339 calls)
                                       19.93s GPU  (   15339 calls)
     vloc_psi     :    246.91s CPU    431.40s WALL (   15339 calls)
                                      431.31s GPU  (   15339 calls)
     add_vuspsi   :      5.21s CPU     25.39s WALL (   15339 calls)
                                       25.22s GPU  (   15339 calls)

     General routines
     calbec       :    175.11s CPU    303.74s WALL (   21147 calls)
     fft          :     35.29s CPU     37.32s WALL (    5470 calls)
                                        2.01s GPU  (    5083 calls)
     ffts         :      9.74s CPU      9.80s WALL (     764 calls)
                                        0.05s GPU  (     377 calls)
     fftw         :      1.64s CPU    382.37s WALL (  228840 calls)
                                      380.01s GPU  (  228840 calls)
     interpolate  :     51.11s CPU     54.06s WALL (     387 calls)
 
     Parallel routines
 
     PWSCF        :      3h21m CPU      4h22m WALL

 
   This run was terminated on:  19:37:46  28Jul2024            

=------------------------------------------------------------------------------=
   JOB DONE.
=------------------------------------------------------------------------------=
