
     Program PWSCF v.7.3 starts on 28Jul2024 at 19:37:58 

     This program is part of the open-source Quantum ESPRESSO suite
     for quantum simulation of materials; please cite
         "P. Giannozzi et al., J. Phys.:Condens. Matter 21 395502 (2009);
         "P. Giannozzi et al., J. Phys.:Condens. Matter 29 465901 (2017);
         "P. Giannozzi et al., J. Chem. Phys. 152 154105 (2020);
          URL http://www.quantum-espresso.org", 
     in publications or presentations arising from this work. More details at
     http://www.quantum-espresso.org/quote

     Parallel version (MPI & OpenMP), running on      32 processor cores
     Number of MPI processes:                 1
     Threads/MPI process:                    32

     MPI processes distributed on     1 nodes
     354175 MiB available memory on the printing compute node when the environment starts
 
     Waiting for input...
     Reading input from standard input
Warning: card &CELL ignored
Warning: card CELL_DYNAMICS='BFGS' ignored
Warning: card PRESS=0.0 ignored
Warning: card CELL_DOFREE='2DXY' ignored
Warning: card / ignored

     Current dimensions of program PWSCF are:
     Max number of different atomic species (ntypx) = 10
     Max number of k-points (npk) =  40000
     Max angular momentum in pseudopotentials (lmaxx) =  4
read_pp_mesh; mismatch in mesh size, discarding the one in header
read_pp_mesh; mismatch in mesh size, discarding the one in header
read_pp_mesh; mismatch in mesh size, discarding the one in header
     Message from routine setup:
     using ibrav=0 with symmetry is DISCOURAGED, use correct ibrav instead
 
     Subspace diagonalization in iterative solution of the eigenvalue problem:
     a serial algorithm will be used

 
     G-vector sticks info
     --------------------
     sticks:   dense  smooth     PW     G-vecs:    dense   smooth      PW
     Sum        8805    4395   1237              1936609   684439  101691
 
     Using Slab Decomposition
 


     bravais-lattice index     =            0
     lattice parameter (alat)  =      33.3357  a.u.
     unit-cell volume          =   10907.1192 (a.u.)^3
     number of atoms/cell      =           20
     number of atomic types    =            3
     number of electrons       =       220.00
     number of Kohn-Sham states=          132
     kinetic-energy cutoff     =      60.0000  Ry
     charge density cutoff     =     480.0000  Ry
     scf convergence threshold =      1.0E-08
     mixing beta               =       0.2000
     number of iterations used =            8  plain     mixing
     energy convergence thresh.=      1.0E-04
     force convergence thresh. =      1.0E-03
     Exchange-correlation= SLA PW PBX PBC
                           (   1   4   3   4   0   0   0)
     nstep                     =         2000


     GPU acceleration is ACTIVE.  1 visible GPUs per MPI rank
     GPU-aware MPI enabled


     celldm(1)=  33.335714  celldm(2)=   0.000000  celldm(3)=   0.000000
     celldm(4)=   0.000000  celldm(5)=   0.000000  celldm(6)=   0.000000

     crystal axes: (cart. coord. in units of alat)
               a(1) = (   1.000000   0.000000   0.000000 )  
               a(2) = (   0.000000   0.207460   0.000000 )  
               a(3) = (   0.000000   0.000000   1.419211 )  

     reciprocal axes: (cart. coord. in units 2 pi/alat)
               b(1) = (  1.000000  0.000000  0.000000 )  
               b(2) = (  0.000000  4.820214  0.000000 )  
               b(3) = (  0.000000  0.000000  0.704617 )  


     PseudoPot. # 1 for Ta read from file:
     /ddn/data/physics/eamoujaes/PSEUDO-CREATED/Ta.upf
     MD5 check sum: d865b2c2c09566b116f2b8decb2c153d
     Pseudo is Projector augmented-wave + core cor, Zval = 13.0
     Generated using ATOMPAW code
     Shape of augmentation charge: SINC**2
     Using radial grid of 2342 points,  6 beta functions with: 
                l(1) =   0
                l(2) =   0
                l(3) =   1
                l(4) =   1
                l(5) =   2
                l(6) =   2
     Q(r) pseudized with 0 coefficients 


     PseudoPot. # 2 for Ni read from file:
     /ddn/data/physics/eamoujaes/PSEUDO-CREATED/Ni.upf
     MD5 check sum: 85a2a5d9d38f4289a1cc30d5adb66a03
     Pseudo is Projector augmented-wave + core cor, Zval = 18.0
     Generated using ATOMPAW code
     Shape of augmentation charge: SINC**2
     Using radial grid of 2342 points,  6 beta functions with: 
                l(1) =   0
                l(2) =   0
                l(3) =   1
                l(4) =   1
                l(5) =   2
                l(6) =   2
     Q(r) pseudized with 0 coefficients 


     PseudoPot. # 3 for Te read from file:
     /ddn/data/physics/eamoujaes/PSEUDO-CREATED/Te.upf
     MD5 check sum: 8d958f193a7511a138982c2e72838810
     Pseudo is Projector augmented-wave + core cor, Zval =  6.0
     Generated using ATOMPAW code
     Shape of augmentation charge: SINC**2
     Using radial grid of 2342 points,  4 beta functions with: 
                l(1) =   0
                l(2) =   0
                l(3) =   1
                l(4) =   1
     Q(r) pseudized with 0 coefficients 


     atomic species   valence    mass     pseudopotential
     Ta               13.00   180.94790     Ta( 1.00)
     Ni               18.00    58.69340     Ni( 1.00)
     Te                6.00   127.60000     Te( 1.00)

      4 Sym. Ops. (no inversion) found ( 3 have fractional translation)



   Cartesian axes

     site n.     atom                  positions (alat units)
         1        Ta     tau(   1) = (   0.8725286   0.0518649   0.7054131  )
         2        Ta     tau(   2) = (   0.3725263   0.1555948   0.7138118  )
         3        Ta     tau(   3) = (   0.1284065   0.0518649   0.7054032  )
         4        Ta     tau(   4) = (   0.6284092   0.1555948   0.7138208  )
         5        Ni     tau(   5) = (   0.7292542   0.0518649   0.6667436  )
         6        Ni     tau(   6) = (   0.2292509   0.1555948   0.7524812  )
         7        Ni     tau(   7) = (   0.2716741   0.0518649   0.6667284  )
         8        Ni     tau(   8) = (   0.7716766   0.1555948   0.7524957  )
         9        Ni     tau(   9) = (   0.5004590   0.0518649   0.7011256  )
        10        Ni     tau(  10) = (   0.0004579   0.1555948   0.7180981  )
        11        Te     tau(  11) = (   0.8057052   0.1555948   0.5972198  )
        12        Te     tau(  12) = (   0.3057012   0.0518649   0.8220046  )
        13        Te     tau(  13) = (   0.6006311   0.0518649   0.5963172  )
        14        Te     tau(  14) = (   0.1006292   0.1555948   0.8229072  )
        15        Te     tau(  15) = (   0.1952149   0.1555948   0.5972072  )
        16        Te     tau(  16) = (   0.6952178   0.0518649   0.8220171  )
        17        Te     tau(  17) = (   0.4003072   0.0518649   0.5963080  )
        18        Te     tau(  18) = (   0.9003091   0.1555948   0.8229170  )
        19        Te     tau(  19) = (   0.0004704   0.0518649   0.6143601  )
        20        Te     tau(  20) = (   0.5004710   0.1555948   0.8048626  )

     number of k points=    12  Gaussian smearing, width (Ry)=  0.0020
                       cart. coord. in units 2pi/alat
        k(    1) = (   0.0000000   0.0000000   0.0000000), wk =   0.1000000
        k(    2) = (   0.0000000   0.4820214   0.0000000), wk =   0.2000000
        k(    3) = (   0.0000000   0.9640428   0.0000000), wk =   0.2000000
        k(    4) = (   0.0000000   1.4460642   0.0000000), wk =   0.2000000
        k(    5) = (   0.0000000   1.9280856   0.0000000), wk =   0.2000000
        k(    6) = (   0.0000000  -2.4101070   0.0000000), wk =   0.1000000
        k(    7) = (  -0.5000000   0.0000000   0.0000000), wk =   0.1000000
        k(    8) = (  -0.5000000   0.4820214   0.0000000), wk =   0.2000000
        k(    9) = (  -0.5000000   0.9640428   0.0000000), wk =   0.2000000
        k(   10) = (  -0.5000000   1.4460642   0.0000000), wk =   0.2000000
        k(   11) = (  -0.5000000   1.9280856   0.0000000), wk =   0.2000000
        k(   12) = (  -0.5000000  -2.4101070   0.0000000), wk =   0.1000000

     Dense  grid:  1936609 G-vectors     FFT dimensions: ( 240,  50, 360)

     Smooth grid:   684439 G-vectors     FFT dimensions: ( 180,  36, 240)

     Estimated max dynamical RAM per process >       9.90 GB

     Initial potential from superposition of free atoms

     starting charge     219.9927, renormalised to     220.0000

     negative rho (up, down):  5.147E-02 0.000E+00
     Starting wfcs are  260 randomized atomic wfcs
     Checking if some PAW data can be deallocated... 

     total cpu time spent up to now is       65.6 secs

     Self-consistent Calculation

     iteration #  1     ecut=    60.00 Ry     beta= 0.20
     Davidson diagonalization with overlap
     ethr =  1.00E-02,  avg # of iterations =  2.8

     negative rho (up, down):  5.199E-02 0.000E+00

     total cpu time spent up to now is      103.2 secs

     total energy              =   -9108.00818143 Ry
     estimated scf accuracy    <       7.60878372 Ry

     iteration #  2     ecut=    60.00 Ry     beta= 0.20
     Davidson diagonalization with overlap
     ethr =  3.46E-03,  avg # of iterations =  2.8

     negative rho (up, down):  5.334E-02 0.000E+00

     total cpu time spent up to now is      140.6 secs

     total energy              =   -9108.30734672 Ry
     estimated scf accuracy    <      12.42849482 Ry

     iteration #  3     ecut=    60.00 Ry     beta= 0.20
     Davidson diagonalization with overlap
     ethr =  3.46E-03,  avg # of iterations =  1.3

     negative rho (up, down):  5.421E-02 0.000E+00

     total cpu time spent up to now is      177.3 secs

     total energy              =   -9109.83759382 Ry
     estimated scf accuracy    <       2.40574462 Ry

     iteration #  4     ecut=    60.00 Ry     beta= 0.20
     Davidson diagonalization with overlap
     ethr =  1.09E-03,  avg # of iterations =  1.4

     negative rho (up, down):  5.542E-02 0.000E+00

     total cpu time spent up to now is      214.0 secs

     total energy              =   -9109.92876640 Ry
     estimated scf accuracy    <       0.80553863 Ry

     iteration #  5     ecut=    60.00 Ry     beta= 0.20
     Davidson diagonalization with overlap
     ethr =  3.66E-04,  avg # of iterations =  1.5

     negative rho (up, down):  6.168E-02 0.000E+00

     total cpu time spent up to now is      250.7 secs

     total energy              =   -9109.77280535 Ry
     estimated scf accuracy    <       0.45271971 Ry

     iteration #  6     ecut=    60.00 Ry     beta= 0.20
     Davidson diagonalization with overlap
     ethr =  2.06E-04,  avg # of iterations =  5.8

     negative rho (up, down):  6.205E-02 0.000E+00

     total cpu time spent up to now is      288.2 secs

     total energy              =   -9109.86029506 Ry
     estimated scf accuracy    <       0.66870575 Ry

     iteration #  7     ecut=    60.00 Ry     beta= 0.20
     Davidson diagonalization with overlap
     ethr =  2.06E-04,  avg # of iterations =  1.0

     negative rho (up, down):  6.218E-02 0.000E+00

     total cpu time spent up to now is      325.2 secs

     total energy              =   -9109.87858026 Ry
     estimated scf accuracy    <       0.06609607 Ry

     iteration #  8     ecut=    60.00 Ry     beta= 0.20
     Davidson diagonalization with overlap
     ethr =  3.00E-05,  avg # of iterations =  7.0

     negative rho (up, down):  6.339E-02 0.000E+00

     total cpu time spent up to now is      362.8 secs

     total energy              =   -9109.88170917 Ry
     estimated scf accuracy    <       0.00764039 Ry

     iteration #  9     ecut=    60.00 Ry     beta= 0.20
     Davidson diagonalization with overlap
     c_bands:  1 eigenvalues not converged
     ethr =  3.47E-06,  avg # of iterations =  9.5

     negative rho (up, down):  6.482E-02 0.000E+00

     total cpu time spent up to now is      402.0 secs

     total energy              =   -9109.87806883 Ry
     estimated scf accuracy    <       0.10824633 Ry

     iteration # 10     ecut=    60.00 Ry     beta= 0.20
     Davidson diagonalization with overlap
     ethr =  3.47E-06,  avg # of iterations =  4.3

     negative rho (up, down):  6.529E-02 0.000E+00

     total cpu time spent up to now is      439.7 secs

     total energy              =   -9109.88281335 Ry
     estimated scf accuracy    <       0.00665876 Ry

     iteration # 11     ecut=    60.00 Ry     beta= 0.20
     Davidson diagonalization with overlap
     ethr =  3.03E-06,  avg # of iterations =  2.0

     negative rho (up, down):  6.548E-02 0.000E+00

     total cpu time spent up to now is      476.9 secs

     total energy              =   -9109.88351316 Ry
     estimated scf accuracy    <       0.00022462 Ry

     iteration # 12     ecut=    60.00 Ry     beta= 0.20
     Davidson diagonalization with overlap
     ethr =  1.02E-07,  avg # of iterations =  4.1

     negative rho (up, down):  6.572E-02 0.000E+00

     total cpu time spent up to now is      515.0 secs

     total energy              =   -9109.88357469 Ry
     estimated scf accuracy    <       0.00025299 Ry

     iteration # 13     ecut=    60.00 Ry     beta= 0.20
     Davidson diagonalization with overlap
     ethr =  1.02E-07,  avg # of iterations =  1.8

     negative rho (up, down):  6.571E-02 0.000E+00

     total cpu time spent up to now is      551.9 secs

     total energy              =   -9109.88359404 Ry
     estimated scf accuracy    <       0.00005814 Ry

     iteration # 14     ecut=    60.00 Ry     beta= 0.20
     Davidson diagonalization with overlap
     ethr =  2.64E-08,  avg # of iterations =  1.3

     negative rho (up, down):  6.576E-02 0.000E+00

     total cpu time spent up to now is      589.0 secs

     total energy              =   -9109.88359916 Ry
     estimated scf accuracy    <       0.00002601 Ry

     iteration # 15     ecut=    60.00 Ry     beta= 0.20
     Davidson diagonalization with overlap
     ethr =  1.18E-08,  avg # of iterations =  1.8

     negative rho (up, down):  6.574E-02 0.000E+00

     total cpu time spent up to now is      626.3 secs

     total energy              =   -9109.88360214 Ry
     estimated scf accuracy    <       0.00000533 Ry

     iteration # 16     ecut=    60.00 Ry     beta= 0.20
     Davidson diagonalization with overlap
     ethr =  2.42E-09,  avg # of iterations =  2.0

     negative rho (up, down):  6.571E-02 0.000E+00

     total cpu time spent up to now is      663.8 secs

     total energy              =   -9109.88360281 Ry
     estimated scf accuracy    <       0.00000097 Ry

     iteration # 17     ecut=    60.00 Ry     beta= 0.20
     Davidson diagonalization with overlap
     ethr =  4.42E-10,  avg # of iterations =  3.7

     negative rho (up, down):  6.567E-02 0.000E+00

     total cpu time spent up to now is      701.5 secs

     total energy              =   -9109.88360296 Ry
     estimated scf accuracy    <       0.00000032 Ry

     iteration # 18     ecut=    60.00 Ry     beta= 0.20
     Davidson diagonalization with overlap
     ethr =  1.46E-10,  avg # of iterations =  4.2

     negative rho (up, down):  6.566E-02 0.000E+00

     total cpu time spent up to now is      739.3 secs

     total energy              =   -9109.88360303 Ry
     estimated scf accuracy    <       0.00000036 Ry

     iteration # 19     ecut=    60.00 Ry     beta= 0.20
     Davidson diagonalization with overlap
     ethr =  1.46E-10,  avg # of iterations =  1.2

     negative rho (up, down):  6.565E-02 0.000E+00

     total cpu time spent up to now is      776.2 secs

     total energy              =   -9109.88360307 Ry
     estimated scf accuracy    <       0.00000004 Ry

     iteration # 20     ecut=    60.00 Ry     beta= 0.20
     Davidson diagonalization with overlap
     ethr =  1.61E-11,  avg # of iterations =  4.5

     negative rho (up, down):  6.564E-02 0.000E+00

     total cpu time spent up to now is      814.2 secs

     total energy              =   -9109.88360308 Ry
     estimated scf accuracy    <       0.00000001 Ry

     iteration # 21     ecut=    60.00 Ry     beta= 0.20
     Davidson diagonalization with overlap
     ethr =  5.19E-12,  avg # of iterations =  2.2

     negative rho (up, down):  6.562E-02 0.000E+00

     total cpu time spent up to now is      851.0 secs

     End of self-consistent calculation

          k = 0.0000 0.0000 0.0000 ( 85739 PWs)   bands (ev):

  -103.3619-103.3602-103.3505-103.3488-102.9797-102.9689 -68.6906 -68.6888
   -68.6809 -68.6795 -63.9356 -63.9339 -63.9310 -63.9293 -63.7710 -63.7692
   -63.7128 -63.7111 -63.6549 -63.6533 -63.6136 -63.6119 -63.4810 -63.4701
   -63.4471 -63.4363 -63.2572 -63.2463 -35.1835 -35.1815 -35.1740 -35.1723
   -35.1251 -35.1204 -35.1181 -35.1163 -35.1147 -35.1101 -35.1083 -35.1068
   -12.9622 -12.6747 -12.5598 -12.1113 -12.0739 -11.8676 -11.8069 -11.7927
   -11.6701 -11.4744  -6.1877  -5.9363  -5.7476  -5.6968  -5.4552  -5.4135
    -5.4005  -4.7839  -4.6467  -4.2260  -4.1520  -3.8344  -3.7768  -3.7749
    -3.6785  -3.6539  -3.6538  -3.6031  -3.2587  -3.2567  -3.0838  -2.9203
    -2.8020  -2.7443  -2.7145  -2.6354  -2.5952  -2.4449  -2.3291  -2.3242
    -2.2714  -2.1442  -2.1403  -1.9992  -1.9597  -1.9163  -1.9104  -1.8429
    -1.8076  -1.6831  -1.6003  -1.5202  -1.3346  -1.3095  -1.3034  -1.2651
    -1.1638  -1.1627  -1.0858  -1.0668  -0.9971  -0.9159  -0.8061  -0.6947
    -0.6561  -0.5373  -0.4571  -0.3700  -0.2358   0.0485   0.0506   0.0549
     0.8063   0.8121   1.1000   1.1106   1.2164   1.3520   1.5114   1.5328
     1.7065   1.9119   2.1142   2.2114   2.3797   2.6288   3.0727   3.2926
     3.3272   3.3849   3.3863   3.6102

          k = 0.0000 0.4820 0.0000 ( 85711 PWs)   bands (ev):

  -103.3616-103.3599-103.3508-103.3491-102.9797-102.9689 -68.6905 -68.6886
   -68.6807 -68.6793 -63.9354 -63.9338 -63.9312 -63.9295 -63.7701 -63.7684
   -63.7155 -63.7138 -63.6526 -63.6509 -63.6141 -63.6123 -63.4810 -63.4701
   -63.4471 -63.4363 -63.2572 -63.2463 -35.1827 -35.1806 -35.1731 -35.1714
   -35.1251 -35.1243 -35.1233 -35.1197 -35.1153 -35.1139 -35.1137 -35.1094
   -12.8674 -12.5824 -12.4760 -12.0614 -12.0039 -11.8217 -11.7485 -11.7405
   -11.6143 -11.4382  -6.1021  -5.8542  -5.6533  -5.5950  -5.3863  -5.3345
    -5.3003  -4.7055  -4.5823  -4.1896  -4.1342  -3.9612  -3.8607  -3.8546
    -3.7587  -3.7552  -3.6326  -3.6241  -3.2763  -3.2547  -3.1013  -3.0189
    -2.8239  -2.8236  -2.8042  -2.7421  -2.7407  -2.6790  -2.5326  -2.2663
    -2.2211  -2.1896  -2.1598  -2.1516  -2.1120  -1.9750  -1.8545  -1.8499
    -1.8286  -1.7624  -1.7380  -1.5945  -1.5603  -1.5581  -1.4036  -1.3779
    -1.2927  -1.2839  -1.1797  -0.9859  -0.9778  -0.9474  -0.9422  -0.7014
    -0.6059  -0.6029  -0.5524  -0.4432  -0.1399  -0.1235   0.1435   0.3364
     0.6432   0.8084   0.9993   1.1121   1.1906   1.2687   1.4075   1.5910
     1.7094   1.8602   1.9516   2.0903   2.3102   2.6139   2.6516   2.8104
     2.8850   3.0136   3.3785   3.5581

          k = 0.0000 0.9640 0.0000 ( 85653 PWs)   bands (ev):

  -103.3608-103.3591-103.3516-103.3499-102.9797-102.9689 -68.6901 -68.6882
   -68.6803 -68.6789 -63.9352 -63.9336 -63.9316 -63.9298 -63.7676 -63.7658
   -63.7223 -63.7206 -63.6468 -63.6451 -63.6155 -63.6138 -63.4810 -63.4701
   -63.4471 -63.4363 -63.2572 -63.2464 -35.1803 -35.1783 -35.1708 -35.1690
   -35.1433 -35.1415 -35.1336 -35.1321 -35.1220 -35.1177 -35.1119 -35.1077
   -12.5959 -12.3195 -12.2402 -11.9215 -11.8188 -11.7076 -11.5878 -11.5783
   -11.4654 -11.3416  -5.8933  -5.6467  -5.4147  -5.3684  -5.2121  -5.1074
    -5.0503  -4.6154  -4.5419  -4.3006  -4.1827  -4.1351  -4.0453  -4.0349
    -3.9562  -3.9370  -3.8346  -3.6595  -3.5555  -3.4765  -3.2477  -3.2276
    -3.2187  -3.0568  -3.0368  -2.8999  -2.8209  -2.7433  -2.6384  -2.5943
    -2.4865  -2.4396  -2.3524  -2.3340  -2.2321  -2.1436  -2.0647  -2.0577
    -2.0007  -1.8618  -1.7829  -1.7394  -1.7144  -1.5494  -1.5274  -1.5218
    -1.4295  -1.3360  -1.3010  -1.0981  -1.0333  -0.9567  -0.9522  -0.9087
    -0.8715  -0.8014  -0.5983  -0.4645  -0.3620  -0.3278   0.4639   0.6460
     0.6601   0.9411   0.9667   1.0226   1.1142   1.2180   1.2367   1.4400
     1.7344   1.7736   1.8036   2.0677   2.1939   2.3692   2.4660   2.5141
     2.6809   2.7786   3.7781   3.8996

          k = 0.0000 1.4461 0.0000 ( 85599 PWs)   bands (ev):

  -103.3596-103.3579-103.3528-103.3511-102.9797-102.9689 -68.6896 -68.6877
   -68.6798 -68.6784 -63.9349 -63.9332 -63.9322 -63.9304 -63.7632 -63.7615
   -63.7312 -63.7295 -63.6397 -63.6380 -63.6180 -63.6163 -63.4810 -63.4701
   -63.4472 -63.4364 -63.2573 -63.2464 -35.1775 -35.1754 -35.1680 -35.1662
   -35.1658 -35.1639 -35.1560 -35.1544 -35.1193 -35.1153 -35.1094 -35.1056
   -12.1904 -11.9346 -11.9098 -11.7159 -11.5880 -11.5718 -11.3778 -11.3263
   -11.2870 -11.2192  -5.7870  -5.5509  -5.4238  -5.3792  -5.0738  -5.0617
    -4.9149  -4.8603  -4.7283  -4.5651  -4.4243  -4.3585  -4.2444  -4.1111
    -4.0552  -4.0045  -3.8769  -3.8105  -3.7449  -3.5629  -3.4856  -3.4547
    -3.3578  -3.1803  -3.0817  -3.0606  -3.0386  -2.9032  -2.7356  -2.6884
    -2.6769  -2.6514  -2.5225  -2.4278  -2.3057  -2.1878  -2.1609  -2.1291
    -2.1132  -1.9911  -1.9859  -1.8669  -1.7676  -1.6529  -1.5904  -1.5323
    -1.4337  -1.4255  -1.4102  -1.3647  -1.1242  -1.1236  -1.1181  -1.0989
    -0.8726  -0.8335  -0.8078  -0.6022  -0.5842  -0.5223   0.4940   0.6240
     0.7686   0.9438   1.0388   1.1614   1.3016   1.3394   1.4342   1.4485
     1.7390   1.8186   1.8242   2.1610   2.2139   2.4209   2.6065   2.6182
     2.8794   2.9485   3.5935   3.6461

          k = 0.0000 1.9281 0.0000 ( 85475 PWs)   bands (ev):

  -103.3580-103.3563-103.3544-103.3526-102.9797-102.9689 -68.6891 -68.6873
   -68.6794 -68.6780 -63.9345 -63.9329 -63.9328 -63.9311 -63.7569 -63.7551
   -63.7404 -63.7387 -63.6327 -63.6310 -63.6216 -63.6199 -63.4810 -63.4701
   -63.4471 -63.4363 -63.2572 -63.2463 -35.1841 -35.1821 -35.1750 -35.1743
   -35.1729 -35.1726 -35.1655 -35.1637 -35.1170 -35.1133 -35.1073 -35.1038
   -11.7419 -11.6280 -11.5363 -11.4670 -11.4539 -11.3925 -11.2150 -11.1966
   -11.1163 -11.1003  -6.0322  -5.9982  -5.9533  -5.9254  -5.2752  -5.2344
    -5.0399  -4.9800  -4.8005  -4.6769  -4.3751  -4.3033  -4.2545  -3.9668
    -3.9574  -3.8197  -3.7181  -3.7006  -3.6146  -3.5933  -3.4435  -3.4146
    -3.3736  -3.3657  -3.2679  -3.2413  -3.0201  -2.9944  -2.8704  -2.8624
    -2.6461  -2.6079  -2.5676  -2.4801  -2.2504  -2.2140  -2.1942  -2.1677
    -2.1615  -2.1044  -2.0642  -1.9140  -1.8988  -1.8122  -1.7361  -1.6660
    -1.4788  -1.4546  -1.4211  -1.3975  -1.3333  -1.2496  -1.1997  -1.1602
    -1.0076  -0.9277  -0.8928  -0.7695  -0.7283  -0.7168   0.3483   0.4367
     0.9309   1.0463   1.0825   1.1711   1.2839   1.6692   1.7374   1.8282
     1.8657   1.9005   2.0758   2.1151   2.2266   2.4679   2.7533   2.8106
     3.0233   3.2394   3.3000   3.3179

          k = 0.0000-2.4101 0.0000 ( 85394 PWs)   bands (ev):

  -103.3566-103.3557-103.3551-103.3538-102.9797-102.9689 -68.6890 -68.6871
   -68.6792 -68.6778 -63.9342 -63.9333 -63.9327 -63.9315 -63.7494 -63.7485
   -63.7478 -63.7467 -63.6270 -63.6262 -63.6254 -63.6243 -63.4811 -63.4702
   -63.4471 -63.4363 -63.2569 -63.2461 -35.1909 -35.1890 -35.1812 -35.1795
   -35.1742 -35.1721 -35.1646 -35.1629 -35.1162 -35.1126 -35.1066 -35.1032
   -11.5150 -11.5087 -11.3388 -11.3347 -11.3313 -11.3252 -11.2243 -11.2145
   -11.0514 -11.0453  -6.2124  -6.2074  -6.2065  -6.2047  -5.4582  -5.4515
    -5.0407  -5.0378  -4.8445  -4.8416  -4.1521  -4.1497  -4.0059  -4.0035
    -3.8727  -3.8696  -3.5628  -3.5596  -3.5063  -3.5000  -3.4708  -3.4685
    -3.4678  -3.4654  -3.1804  -3.1792  -3.0992  -3.0960  -2.9662  -2.9636
    -2.5830  -2.5796  -2.4778  -2.4754  -2.2503  -2.2447  -2.1929  -2.1923
    -2.1767  -2.1761  -1.9418  -1.9390  -1.8749  -1.8735  -1.8697  -1.8684
    -1.4848  -1.4823  -1.3528  -1.3475  -1.3387  -1.3338  -1.2235  -1.2218
    -1.1164  -1.1157  -0.9351  -0.9335  -0.7204  -0.7167   0.3476   0.3560
     1.0341   1.0387   1.1065   1.1142   1.3865   1.3883   1.7935   1.7989
     2.1572   2.1651   2.2654   2.2687   2.3362   2.3454   2.6904   2.6917
     3.0033   3.0064   3.3624   3.3638

          k =-0.5000 0.0000 0.0000 ( 85770 PWs)   bands (ev):

  -103.3619-103.3602-103.3505-103.3488-102.9797-102.9689 -68.6906 -68.6888
   -68.6809 -68.6795 -63.9356 -63.9339 -63.9310 -63.9293 -63.7709 -63.7692
   -63.7128 -63.7111 -63.6550 -63.6533 -63.6136 -63.6119 -63.4810 -63.4702
   -63.4472 -63.4364 -63.2572 -63.2463 -35.1835 -35.1815 -35.1740 -35.1723
   -35.1250 -35.1207 -35.1181 -35.1163 -35.1144 -35.1102 -35.1083 -35.1068
   -12.8764 -12.8717 -12.2700 -12.2683 -12.0513 -12.0469 -11.7511 -11.7439
   -11.5581 -11.5555  -6.0985  -6.0955  -5.7525  -5.7483  -5.4098  -5.4052
    -5.0412  -5.0376  -4.5855  -4.5808  -3.8861  -3.8837  -3.7228  -3.7210
    -3.6677  -3.6659  -3.5287  -3.5277  -3.2563  -3.2545  -3.2191  -3.2156
    -2.7863  -2.7805  -2.6597  -2.6583  -2.5343  -2.5330  -2.2892  -2.2879
    -2.1903  -2.1896  -2.0116  -2.0088  -1.9829  -1.9806  -1.8372  -1.8364
    -1.7437  -1.7421  -1.6279  -1.6237  -1.3232  -1.3203  -1.1843  -1.1811
    -1.1684  -1.1659  -1.1181  -1.1158  -0.9887  -0.9874  -0.6681  -0.6670
    -0.6644  -0.6630  -0.4028  -0.4009  -0.1029  -0.0952   0.0456   0.0469
     0.9638   0.9647   0.9867   0.9930   1.3255   1.3276   1.3465   1.3480
     1.8053   1.8112   2.2994   2.3075   2.3858   2.3913   3.2343   3.2372
     3.2795   3.2839   3.5256   3.5297

          k =-0.5000 0.4820 0.0000 ( 85716 PWs)   bands (ev):

  -103.3616-103.3599-103.3508-103.3491-102.9797-102.9689 -68.6905 -68.6886
   -68.6807 -68.6793 -63.9355 -63.9338 -63.9313 -63.9295 -63.7701 -63.7683
   -63.7155 -63.7138 -63.6526 -63.6509 -63.6140 -63.6123 -63.4810 -63.4702
   -63.4471 -63.4363 -63.2572 -63.2463 -35.1827 -35.1806 -35.1731 -35.1714
   -35.1251 -35.1242 -35.1233 -35.1199 -35.1153 -35.1138 -35.1136 -35.1095
   -12.7830 -12.7783 -12.1894 -12.1878 -12.0033 -11.9989 -11.6961 -11.6893
   -11.5151 -11.5127  -6.0119  -6.0090  -5.6568  -5.6528  -5.3249  -5.3200
    -4.9685  -4.9653  -4.5334  -4.5288  -3.9752  -3.9731  -3.8253  -3.8244
    -3.6495  -3.6478  -3.5194  -3.5183  -3.4242  -3.4228  -3.1006  -3.0993
    -2.9235  -2.9174  -2.7457  -2.7442  -2.7064  -2.7047  -2.3781  -2.3767
    -2.1987  -2.1975  -2.1448  -2.1423  -1.9800  -1.9787  -1.8971  -1.8938
    -1.8030  -1.8025  -1.7051  -1.7006  -1.5339  -1.5324  -1.4047  -1.4024
    -1.2462  -1.2449  -1.1062  -1.1026  -0.9362  -0.9347  -0.8027  -0.8013
    -0.6359  -0.6321  -0.5166  -0.5143  -0.1016  -0.0958   0.2318   0.2346
     0.7430   0.7440   1.1223   1.1274   1.2467   1.2482   1.3581   1.3620
     1.7206   1.7232   2.0966   2.1019   2.3564   2.3590   2.7947   2.7969
     2.9290   2.9339   3.5164   3.5187

          k =-0.5000 0.9640 0.0000 ( 85742 PWs)   bands (ev):

  -103.3608-103.3591-103.3516-103.3499-102.9797-102.9689 -68.6901 -68.6882
   -68.6803 -68.6789 -63.9354 -63.9337 -63.9317 -63.9300 -63.7676 -63.7659
   -63.7224 -63.7207 -63.6469 -63.6452 -63.6155 -63.6138 -63.4811 -63.4703
   -63.4472 -63.4364 -63.2573 -63.2464 -35.1803 -35.1783 -35.1708 -35.1690
   -35.1433 -35.1415 -35.1336 -35.1321 -35.1219 -35.1178 -35.1117 -35.1078
   -12.5162 -12.5113 -11.9649 -11.9633 -11.8708 -11.8661 -11.5504 -11.5448
   -11.3951 -11.3935  -5.7956  -5.7932  -5.4107  -5.4075  -5.1156  -5.1099
    -4.8660  -4.8659  -4.4485  -4.4479  -4.1942  -4.1930  -4.0868  -4.0852
    -3.7434  -3.7404  -3.6308  -3.6292  -3.6039  -3.5971  -3.3115  -3.3105
    -3.1996  -3.1984  -2.9623  -2.9600  -2.7606  -2.7602  -2.6503  -2.6479
    -2.4542  -2.4522  -2.3851  -2.3813  -2.1453  -2.1441  -2.0619  -2.0599
    -1.9385  -1.9371  -1.7934  -1.7867  -1.5906  -1.5891  -1.5064  -1.5034
    -1.3190  -1.3176  -1.2771  -1.2756  -1.0430  -1.0416  -0.9430  -0.9420
    -0.8327  -0.8310  -0.4682  -0.4661  -0.3266  -0.3189   0.5158   0.5174
     0.8035   0.8044   1.0282   1.0340   1.2391   1.2415   1.3630   1.3656
     1.5533   1.5558   1.9446   1.9471   2.2885   2.2908   2.5367   2.5426
     2.6822   2.6841   3.8593   3.8610

          k =-0.5000 1.4461 0.0000 ( 85596 PWs)   bands (ev):

  -103.3596-103.3579-103.3528-103.3511-102.9797-102.9689 -68.6896 -68.6877
   -68.6798 -68.6784 -63.9349 -63.9333 -63.9322 -63.9304 -63.7632 -63.7614
   -63.7312 -63.7295 -63.6397 -63.6380 -63.6180 -63.6163 -63.4810 -63.4701
   -63.4471 -63.4364 -63.2573 -63.2464 -35.1775 -35.1754 -35.1680 -35.1662
   -35.1658 -35.1639 -35.1560 -35.1544 -35.1192 -35.1154 -35.1093 -35.1056
   -12.1210 -12.1160 -11.6913 -11.6863 -11.6542 -11.6526 -11.3710 -11.3668
   -11.2312 -11.2305  -5.6917  -5.6902  -5.3102  -5.3083  -5.1719  -5.1684
    -4.9451  -4.9396  -4.5727  -4.5691  -4.4274  -4.4217  -4.0964  -4.0951
    -4.0017  -4.0003  -3.8937  -3.8911  -3.6472  -3.6463  -3.5162  -3.5143
    -3.1790  -3.1750  -3.0976  -3.0953  -2.9752  -2.9705  -2.8288  -2.8281
    -2.5880  -2.5856  -2.5179  -2.5149  -2.2404  -2.2395  -2.1430  -2.1387
    -2.0662  -2.0619  -1.9534  -1.9491  -1.6304  -1.6286  -1.5713  -1.5710
    -1.4174  -1.4149  -1.4018  -1.3986  -1.1921  -1.1864  -1.0568  -1.0558
    -0.9008  -0.8956  -0.6807  -0.6783  -0.5437  -0.5384   0.5217   0.5279
     0.9955   0.9964   1.1291   1.1299   1.3059   1.3117   1.3841   1.3857
     1.6995   1.7053   1.9270   1.9283   2.4118   2.4146   2.6450   2.6488
     2.8007   2.8055   3.6923   3.6952

          k =-0.5000 1.9281 0.0000 ( 85416 PWs)   bands (ev):

  -103.3580-103.3563-103.3544-103.3526-102.9797-102.9689 -68.6891 -68.6873
   -68.6794 -68.6780 -63.9345 -63.9329 -63.9327 -63.9310 -63.7568 -63.7551
   -63.7404 -63.7386 -63.6326 -63.6309 -63.6215 -63.6198 -63.4810 -63.4701
   -63.4470 -63.4362 -63.2571 -63.2463 -35.1841 -35.1821 -35.1750 -35.1743
   -35.1729 -35.1726 -35.1655 -35.1637 -35.1170 -35.1134 -35.1073 -35.1038
   -11.6995 -11.6943 -11.5138 -11.5080 -11.3900 -11.3868 -11.2313 -11.2236
   -11.1020 -11.0985  -6.0786  -6.0756  -5.8468  -5.8418  -5.3076  -5.3016
    -5.0158  -5.0139  -4.7295  -4.7277  -4.3567  -4.3549  -4.1137  -4.1099
    -3.8940  -3.8900  -3.7436  -3.7410  -3.5584  -3.5571  -3.4400  -3.4398
    -3.3308  -3.3258  -3.1906  -3.1888  -3.0362  -3.0353  -2.8658  -2.8645
    -2.6830  -2.6809  -2.4835  -2.4822  -2.3205  -2.3189  -2.1783  -2.1745
    -2.1217  -2.1205  -2.0318  -2.0312  -1.7385  -1.7372  -1.7120  -1.7104
    -1.5023  -1.4973  -1.4152  -1.4099  -1.3121  -1.3094  -1.1153  -1.1126
    -1.0475  -1.0468  -0.8242  -0.8164  -0.7106  -0.7087   0.3885   0.3964
     1.0262   1.0282   1.2048   1.2049   1.3903   1.3933   1.7923   1.7929
     1.8640   1.8705   2.0717   2.0765   2.2976   2.3035   2.8562   2.8587
     2.9993   3.0025   3.3528   3.3545

          k =-0.5000-2.4101 0.0000 ( 85332 PWs)   bands (ev):

  -103.3566-103.3557-103.3551-103.3538-102.9797-102.9689 -68.6890 -68.6871
   -68.6792 -68.6778 -63.9341 -63.9332 -63.9325 -63.9313 -63.7494 -63.7486
   -63.7478 -63.7467 -63.6270 -63.6261 -63.6254 -63.6243 -63.4809 -63.4701
   -63.4471 -63.4363 -63.2569 -63.2461 -35.1909 -35.1890 -35.1812 -35.1795
   -35.1742 -35.1721 -35.1646 -35.1628 -35.1162 -35.1126 -35.1066 -35.1032
   -11.5149 -11.5087 -11.3412 -11.3368 -11.3271 -11.3210 -11.2279 -11.2180
   -11.0497 -11.0438  -6.3166  -6.3128  -6.0773  -6.0717  -5.4809  -5.4733
    -5.0309  -5.0270  -4.8708  -4.8687  -4.1013  -4.0968  -4.0944  -4.0939
    -3.7882  -3.7856  -3.6350  -3.6322  -3.5451  -3.5407  -3.4768  -3.4704
    -3.4308  -3.4274  -3.2352  -3.2317  -2.9439  -2.9439  -2.8803  -2.8793
    -2.6986  -2.6971  -2.4694  -2.4681  -2.2896  -2.2886  -2.2474  -2.2427
    -2.1561  -2.1560  -1.9345  -1.9309  -1.8905  -1.8888  -1.7827  -1.7826
    -1.5269  -1.5234  -1.3714  -1.3671  -1.3357  -1.3301  -1.1876  -1.1833
    -1.1558  -1.1487  -0.9307  -0.9303  -0.7162  -0.7127   0.3538   0.3621
     1.0785   1.0804   1.1653   1.1656   1.2892   1.2914   1.8763   1.8792
     2.0609   2.0665   2.2496   2.2564   2.3363   2.3456   2.7384   2.7414
     2.8828   2.8832   3.5702   3.5729

     the Fermi energy is     0.0329 ev

!    total energy              =   -9109.88360309 Ry
     total all-electron energy =     -9109.883603 Ry
     estimated scf accuracy    <          4.6E-09 Ry
     smearing contrib. (-TS)   =      -0.00019536 Ry
     internal energy E=F+TS    =   -9109.88340772 Ry

     The total energy is F=E-TS. E is the sum of the following terms:
     one-electron contribution =  -16400.21342369 Ry
     hartree contribution      =    8058.73045614 Ry
     xc contribution           =    -364.94736165 Ry
     ewald contribution        =    5864.26094665 Ry
     one-center paw contrib.   =   -6267.71402517 Ry

     convergence has been achieved in  21 iterations

     negative rho (up, down):  6.562E-02 0.000E+00

     Forces acting on atoms (cartesian axes, Ry/au):

     atom    1 type  1   force =     0.00001298    0.00000000   -0.00002095
     atom    2 type  1   force =     0.00001298    0.00000000    0.00002095
     atom    3 type  1   force =     0.00003462    0.00000000   -0.00002083
     atom    4 type  1   force =     0.00003462    0.00000000    0.00002083
     atom    5 type  2   force =    -0.00005749    0.00000000    0.00003599
     atom    6 type  2   force =    -0.00005749    0.00000000   -0.00003599
     atom    7 type  2   force =    -0.00000833   -0.00000000    0.00000381
     atom    8 type  2   force =    -0.00000833    0.00000000   -0.00000381
     atom    9 type  2   force =    -0.00001658    0.00000000    0.00001600
     atom   10 type  2   force =    -0.00001658   -0.00000000   -0.00001600
     atom   11 type  3   force =    -0.00002811    0.00000000   -0.00000209
     atom   12 type  3   force =    -0.00002811    0.00000000    0.00000209
     atom   13 type  3   force =     0.00000515    0.00000000    0.00000140
     atom   14 type  3   force =     0.00000515    0.00000000   -0.00000140
     atom   15 type  3   force =    -0.00002065    0.00000000   -0.00001175
     atom   16 type  3   force =    -0.00002065    0.00000000    0.00001175
     atom   17 type  3   force =     0.00001330    0.00000000    0.00000123
     atom   18 type  3   force =     0.00001330    0.00000000   -0.00000123
     atom   19 type  3   force =     0.00006512    0.00000000   -0.00000940
     atom   20 type  3   force =     0.00006512    0.00000000    0.00000940

     Total force =     0.000163     Total SCF correction =     0.000240
     SCF correction compared to forces is large: reduce conv_thr to get better values


     Computing stress (Cartesian axis) and pressure


     negative rho (up, down):  6.562E-02 0.000E+00
          total   stress  (Ry/bohr**3)                   (kbar)     P=       -1.91
   0.00000002   0.00000000   0.00000000            0.00        0.00        0.00
   0.00000000  -0.00000025   0.00000000            0.00       -0.04        0.00
   0.00000000   0.00000000  -0.00003882            0.00        0.00       -5.71


     BFGS Geometry Optimization
     Energy error            =      0.0E+00 Ry
     Gradient error          =      6.5E-05 Ry/Bohr

     bfgs converged in   1 scf cycles and   0 bfgs steps
     (criteria: energy <  1.0E-04 Ry, force <  1.0E-03 Ry/Bohr)

     End of BFGS Geometry Optimization

     Final energy             =   -9109.8836030856 Ry
Begin final coordinates

ATOMIC_POSITIONS (angstrom)
Ta              15.3918408268        0.9149235643       12.4438402333
Ta               6.5715505136        2.7447696811       12.5919963342
Ta               2.2651556138        0.9149235643       12.4436659609
Ta              11.0854533467        2.7447696811       12.5921564874
Ni              12.8644081583        0.9149235643       11.7616895951
Ni               4.0441001260        2.7447696811       13.2741439515
Ni               4.7924667237        0.9149235643       11.7614229579
Ni              13.6127606136        2.7447696811       13.2744010088
Ni               8.8283466658        0.9149235643       12.3682055969
Ni               0.0080769022        2.7447696811       12.6676098121
Te              14.2130423748        2.7447696811       10.5352567511
Te               5.3927218546        0.9149235643       14.5005721060
Te              10.5954331180        0.9149235643       10.5193338760
Te               1.7751500843        2.7447696811       14.5164949560
Te               3.4436886923        2.7447696811       10.5350335412
Te              12.2639895367        0.9149235643       14.5007925479
Te               7.0616184217        0.9149235643       10.5191712715
Te              15.8819019065        2.7447696811       14.5166671281
Te               0.0082989229        0.9149235643       10.8376190653
Te               8.8285579610        2.7447696811       14.1981778186
End final coordinates



     Writing all to output data dir /ddn/data/physics/eamoujaes/2D-Ta2Ni3Te5/ELASTIC/OUT/ta2ni3te5.save/ :
     XML data file, charge density, pseudopotentials, collected wavefunctions
 
     init_run     :     51.38s CPU     63.29s WALL (       1 calls)
     electrons    :    609.63s CPU    785.50s WALL (       1 calls)
     forces       :      1.76s CPU      2.19s WALL (       1 calls)
     stress       :      3.14s CPU      4.85s WALL (       1 calls)

     Called by init_run:
     wfcinit      :      5.66s CPU      7.31s WALL (       1 calls)
     potinit      :     41.21s CPU     50.21s WALL (       1 calls)
     hinit0       :      2.55s CPU      3.01s WALL (       1 calls)

     Called by electrons:
     c_bands      :     43.95s CPU     63.91s WALL (      21 calls)
     sum_band     :     17.84s CPU     22.39s WALL (      21 calls)
     v_of_rho     :      7.69s CPU      9.98s WALL (      22 calls)
     newd         :      2.03s CPU      3.24s WALL (      22 calls)
                                        3.24s GPU  (      22 calls)
     PAW_pot      :    572.97s CPU    727.89s WALL (      22 calls)
     mix_rho      :      2.30s CPU      4.33s WALL (      21 calls)

     Called by c_bands:
     init_us_2    :      0.65s CPU      0.76s WALL (     540 calls)
     init_us_2:gp :      0.64s CPU      0.75s WALL (     540 calls)
     cegterg      :     26.00s CPU     43.40s WALL (     252 calls)

     Called by *egterg:
     cdiaghg      :      2.75s CPU      4.33s WALL (    1043 calls)
                                        4.33s GPU  (    1043 calls)
     h_psi        :     18.83s CPU     32.01s WALL (    1055 calls)
                                       31.94s GPU  (    1055 calls)
     s_psi        :      0.47s CPU      0.63s WALL (    1055 calls)
     g_psi        :      0.00s CPU      0.27s WALL (     791 calls)
                                        0.26s GPU  (     791 calls)

     Called by h_psi:
     h_psi:calbec :      0.03s CPU      1.34s WALL (    1055 calls)
                                        1.33s GPU  (    1055 calls)
     vloc_psi     :     16.82s CPU     28.74s WALL (    1055 calls)
                                       28.73s GPU  (    1055 calls)
     add_vuspsi   :      0.36s CPU      1.63s WALL (    1055 calls)
                                        1.62s GPU  (    1055 calls)

     General routines
     calbec       :      0.04s CPU      0.06s WALL (    1367 calls)
     fft          :      2.06s CPU      2.18s WALL (     309 calls)
                                        0.14s GPU  (     287 calls)
     ffts         :      0.57s CPU      0.57s WALL (      43 calls)
                                        0.00s GPU  (      21 calls)
     fftw         :      0.11s CPU     25.02s WALL (   13808 calls)
                                       24.95s GPU  (   13808 calls)
     interpolate  :      3.02s CPU      3.05s WALL (      22 calls)
 
     Parallel routines
 
     PWSCF        :  11m12.46s CPU  14m25.48s WALL

 
   This run was terminated on:  19:52:24  28Jul2024            

=------------------------------------------------------------------------------=
   JOB DONE.
=------------------------------------------------------------------------------=
