
     Program PWSCF v.7.3 starts on 28Jul2024 at 19:52:31 

     This program is part of the open-source Quantum ESPRESSO suite
     for quantum simulation of materials; please cite
         "P. Giannozzi et al., J. Phys.:Condens. Matter 21 395502 (2009);
         "P. Giannozzi et al., J. Phys.:Condens. Matter 29 465901 (2017);
         "P. Giannozzi et al., J. Chem. Phys. 152 154105 (2020);
          URL http://www.quantum-espresso.org", 
     in publications or presentations arising from this work. More details at
     http://www.quantum-espresso.org/quote

     Parallel version (MPI & OpenMP), running on      32 processor cores
     Number of MPI processes:                 1
     Threads/MPI process:                    32

     MPI processes distributed on     1 nodes
     354130 MiB available memory on the printing compute node when the environment starts
 
     Waiting for input...
     Reading input from standard input
Warning: card &CELL ignored
Warning: card CELL_DYNAMICS='BFGS' ignored
Warning: card PRESS=0.0 ignored
Warning: card CELL_DOFREE='2DXY' ignored
Warning: card / ignored

     Current dimensions of program PWSCF are:
     Max number of different atomic species (ntypx) = 10
     Max number of k-points (npk) =  40000
     Max angular momentum in pseudopotentials (lmaxx) =  4
read_pp_mesh; mismatch in mesh size, discarding the one in header
read_pp_mesh; mismatch in mesh size, discarding the one in header
read_pp_mesh; mismatch in mesh size, discarding the one in header
     Message from routine setup:
     using ibrav=0 with symmetry is DISCOURAGED, use correct ibrav instead
 
     Subspace diagonalization in iterative solution of the eigenvalue problem:
     a serial algorithm will be used

 
     G-vector sticks info
     --------------------
     sticks:   dense  smooth     PW     G-vecs:    dense   smooth      PW
     Sum        8977    4489   1259              1975125   698117  103721
 
     Using Slab Decomposition
 


     bravais-lattice index     =            0
     lattice parameter (alat)  =      34.0024  a.u.
     unit-cell volume          =   11125.2554 (a.u.)^3
     number of atoms/cell      =           20
     number of atomic types    =            3
     number of electrons       =       220.00
     number of Kohn-Sham states=          132
     kinetic-energy cutoff     =      60.0000  Ry
     charge density cutoff     =     480.0000  Ry
     scf convergence threshold =      1.0E-08
     mixing beta               =       0.2000
     number of iterations used =            8  plain     mixing
     energy convergence thresh.=      1.0E-04
     force convergence thresh. =      1.0E-03
     Exchange-correlation= SLA PW PBX PBC
                           (   1   4   3   4   0   0   0)
     nstep                     =         2000


     GPU acceleration is ACTIVE.  1 visible GPUs per MPI rank
     GPU-aware MPI enabled


     celldm(1)=  34.002409  celldm(2)=   0.000000  celldm(3)=   0.000000
     celldm(4)=   0.000000  celldm(5)=   0.000000  celldm(6)=   0.000000

     crystal axes: (cart. coord. in units of alat)
               a(1) = (   1.000000   0.000000   0.000000 )  
               a(2) = (   0.000000   0.203392   0.000000 )  
               a(3) = (   0.000000   0.000000   1.391385 )  

     reciprocal axes: (cart. coord. in units 2 pi/alat)
               b(1) = (  1.000000  0.000000  0.000000 )  
               b(2) = (  0.000000  4.916616  0.000000 )  
               b(3) = (  0.000000  0.000000  0.718709 )  


     PseudoPot. # 1 for Ta read from file:
     /ddn/data/physics/eamoujaes/PSEUDO-CREATED/Ta.upf
     MD5 check sum: d865b2c2c09566b116f2b8decb2c153d
     Pseudo is Projector augmented-wave + core cor, Zval = 13.0
     Generated using ATOMPAW code
     Shape of augmentation charge: SINC**2
     Using radial grid of 2342 points,  6 beta functions with: 
                l(1) =   0
                l(2) =   0
                l(3) =   1
                l(4) =   1
                l(5) =   2
                l(6) =   2
     Q(r) pseudized with 0 coefficients 


     PseudoPot. # 2 for Ni read from file:
     /ddn/data/physics/eamoujaes/PSEUDO-CREATED/Ni.upf
     MD5 check sum: 85a2a5d9d38f4289a1cc30d5adb66a03
     Pseudo is Projector augmented-wave + core cor, Zval = 18.0
     Generated using ATOMPAW code
     Shape of augmentation charge: SINC**2
     Using radial grid of 2342 points,  6 beta functions with: 
                l(1) =   0
                l(2) =   0
                l(3) =   1
                l(4) =   1
                l(5) =   2
                l(6) =   2
     Q(r) pseudized with 0 coefficients 


     PseudoPot. # 3 for Te read from file:
     /ddn/data/physics/eamoujaes/PSEUDO-CREATED/Te.upf
     MD5 check sum: 8d958f193a7511a138982c2e72838810
     Pseudo is Projector augmented-wave + core cor, Zval =  6.0
     Generated using ATOMPAW code
     Shape of augmentation charge: SINC**2
     Using radial grid of 2342 points,  4 beta functions with: 
                l(1) =   0
                l(2) =   0
                l(3) =   1
                l(4) =   1
     Q(r) pseudized with 0 coefficients 


     atomic species   valence    mass     pseudopotential
     Ta               13.00   180.94790     Ta( 1.00)
     Ni               18.00    58.69340     Ni( 1.00)
     Te                6.00   127.60000     Te( 1.00)

      2 Sym. Ops. (no inversion) found ( 1 have fractional translation)



   Cartesian axes

     site n.     atom                  positions (alat units)
         1        Ta     tau(   1) = (   0.8554207   0.0508480   0.6915819  )
         2        Ta     tau(   2) = (   0.3652221   0.1525440   0.6998158  )
         3        Ta     tau(   3) = (   0.1258888   0.0508480   0.6915722  )
         4        Ta     tau(   4) = (   0.6160878   0.1525440   0.6998247  )
         5        Ni     tau(   5) = (   0.7149555   0.0508480   0.6536705  )
         6        Ni     tau(   6) = (   0.2247559   0.1525440   0.7377270  )
         7        Ni     tau(   7) = (   0.2663473   0.0508480   0.6536557  )
         8        Ni     tau(   8) = (   0.7565461   0.1525440   0.7377413  )
         9        Ni     tau(   9) = (   0.4906463   0.0508480   0.6873784  )
        10        Ni     tau(  10) = (   0.0004489   0.1525440   0.7040182  )
        11        Te     tau(  11) = (   0.7899075   0.1525440   0.5855100  )
        12        Te     tau(  12) = (   0.2997072   0.0508480   0.8058873  )
        13        Te     tau(  13) = (   0.5888544   0.0508480   0.5846250  )
        14        Te     tau(  14) = (   0.0986562   0.1525440   0.8067722  )
        15        Te     tau(  15) = (   0.1913873   0.1525440   0.5854976  )
        16        Te     tau(  16) = (   0.6815865   0.0508480   0.8058996  )
        17        Te     tau(  17) = (   0.3924582   0.0508480   0.5846160  )
        18        Te     tau(  18) = (   0.8826564   0.1525440   0.8067818  )
        19        Te     tau(  19) = (   0.0004612   0.0508480   0.6023141  )
        20        Te     tau(  20) = (   0.4906581   0.1525440   0.7890814  )

     number of k points=    12  Gaussian smearing, width (Ry)=  0.0020
                       cart. coord. in units 2pi/alat
        k(    1) = (   0.0000000   0.0000000   0.0000000), wk =   0.1000000
        k(    2) = (   0.0000000   0.4916616   0.0000000), wk =   0.2000000
        k(    3) = (   0.0000000   0.9833231   0.0000000), wk =   0.2000000
        k(    4) = (   0.0000000   1.4749847   0.0000000), wk =   0.2000000
        k(    5) = (   0.0000000   1.9666462   0.0000000), wk =   0.2000000
        k(    6) = (   0.0000000  -2.4583078   0.0000000), wk =   0.1000000
        k(    7) = (  -0.5000000   0.0000000   0.0000000), wk =   0.1000000
        k(    8) = (  -0.5000000   0.4916616   0.0000000), wk =   0.2000000
        k(    9) = (  -0.5000000   0.9833231   0.0000000), wk =   0.2000000
        k(   10) = (  -0.5000000   1.4749847   0.0000000), wk =   0.2000000
        k(   11) = (  -0.5000000   1.9666462   0.0000000), wk =   0.2000000
        k(   12) = (  -0.5000000  -2.4583078   0.0000000), wk =   0.1000000

     Dense  grid:  1975125 G-vectors     FFT dimensions: ( 240,  50, 360)

     Smooth grid:   698117 G-vectors     FFT dimensions: ( 180,  36, 240)

     Estimated max dynamical RAM per process >      10.09 GB

     Initial potential from superposition of free atoms

     starting charge     219.9927, renormalised to     220.0000

     negative rho (up, down):  5.183E-02 0.000E+00
     Starting wfcs are  260 randomized atomic wfcs
     Checking if some PAW data can be deallocated... 

     total cpu time spent up to now is       66.2 secs

     Self-consistent Calculation

     iteration #  1     ecut=    60.00 Ry     beta= 0.20
     Davidson diagonalization with overlap
     ethr =  1.00E-02,  avg # of iterations =  2.8

     negative rho (up, down):  5.232E-02 0.000E+00

     total cpu time spent up to now is      103.9 secs

     total energy              =   -9107.95594790 Ry
     estimated scf accuracy    <       7.72025583 Ry

     iteration #  2     ecut=    60.00 Ry     beta= 0.20
     Davidson diagonalization with overlap
     ethr =  3.51E-03,  avg # of iterations =  2.8

     negative rho (up, down):  5.347E-02 0.000E+00

     total cpu time spent up to now is      141.1 secs

     total energy              =   -9107.83245919 Ry
     estimated scf accuracy    <      17.59341078 Ry

     iteration #  3     ecut=    60.00 Ry     beta= 0.20
     Davidson diagonalization with overlap
     ethr =  3.51E-03,  avg # of iterations =  1.8

     negative rho (up, down):  5.415E-02 0.000E+00

     total cpu time spent up to now is      178.4 secs

     total energy              =   -9109.58804584 Ry
     estimated scf accuracy    <       7.76967019 Ry

     iteration #  4     ecut=    60.00 Ry     beta= 0.20
     Davidson diagonalization with overlap
     ethr =  3.51E-03,  avg # of iterations =  1.0

     negative rho (up, down):  5.509E-02 0.000E+00

     total cpu time spent up to now is      215.3 secs

     total energy              =   -9109.93074025 Ry
     estimated scf accuracy    <       1.41227047 Ry

     iteration #  5     ecut=    60.00 Ry     beta= 0.20
     Davidson diagonalization with overlap
     ethr =  6.42E-04,  avg # of iterations =  1.1

     negative rho (up, down):  5.605E-02 0.000E+00

     total cpu time spent up to now is      252.0 secs

     total energy              =   -9109.90847271 Ry
     estimated scf accuracy    <       0.81939156 Ry

     iteration #  6     ecut=    60.00 Ry     beta= 0.20
     Davidson diagonalization with overlap
     ethr =  3.72E-04,  avg # of iterations =  1.3

     negative rho (up, down):  6.021E-02 0.000E+00

     total cpu time spent up to now is      288.8 secs

     total energy              =   -9109.78562715 Ry
     estimated scf accuracy    <       0.52353449 Ry

     iteration #  7     ecut=    60.00 Ry     beta= 0.20
     Davidson diagonalization with overlap
     ethr =  2.38E-04,  avg # of iterations =  4.7

     negative rho (up, down):  6.137E-02 0.000E+00

     total cpu time spent up to now is      326.6 secs

     total energy              =   -9109.86632487 Ry
     estimated scf accuracy    <       0.49738483 Ry

     iteration #  8     ecut=    60.00 Ry     beta= 0.20
     Davidson diagonalization with overlap
     ethr =  2.26E-04,  avg # of iterations =  1.0

     negative rho (up, down):  6.216E-02 0.000E+00

     total cpu time spent up to now is      363.7 secs

     total energy              =   -9109.84911615 Ry
     estimated scf accuracy    <       0.32175076 Ry

     iteration #  9     ecut=    60.00 Ry     beta= 0.20
     Davidson diagonalization with overlap
     ethr =  1.46E-04,  avg # of iterations =  1.5

     negative rho (up, down):  6.251E-02 0.000E+00

     total cpu time spent up to now is      401.0 secs

     total energy              =   -9109.85456689 Ry
     estimated scf accuracy    <       0.04729563 Ry

     iteration # 10     ecut=    60.00 Ry     beta= 0.20
     Davidson diagonalization with overlap
     c_bands:  1 eigenvalues not converged
     c_bands:  1 eigenvalues not converged
     ethr =  2.15E-05,  avg # of iterations = 10.4

     negative rho (up, down):  6.338E-02 0.000E+00

     total cpu time spent up to now is      439.8 secs

     total energy              =   -9109.85928361 Ry
     estimated scf accuracy    <       0.01387217 Ry

     iteration # 11     ecut=    60.00 Ry     beta= 0.20
     Davidson diagonalization with overlap
     ethr =  6.31E-06,  avg # of iterations =  7.7

     negative rho (up, down):  6.454E-02 0.000E+00

     total cpu time spent up to now is      477.9 secs

     total energy              =   -9109.85727721 Ry
     estimated scf accuracy    <       0.01697445 Ry

     iteration # 12     ecut=    60.00 Ry     beta= 0.20
     Davidson diagonalization with overlap
     ethr =  6.31E-06,  avg # of iterations =  1.6

     negative rho (up, down):  6.500E-02 0.000E+00

     total cpu time spent up to now is      515.2 secs

     total energy              =   -9109.85900769 Ry
     estimated scf accuracy    <       0.00377999 Ry

     iteration # 13     ecut=    60.00 Ry     beta= 0.20
     Davidson diagonalization with overlap
     c_bands:  2 eigenvalues not converged
     ethr =  1.72E-06,  avg # of iterations =  5.3

     negative rho (up, down):  6.521E-02 0.000E+00

     total cpu time spent up to now is      552.6 secs

     total energy              =   -9109.85938533 Ry
     estimated scf accuracy    <       0.00050018 Ry

     iteration # 14     ecut=    60.00 Ry     beta= 0.20
     Davidson diagonalization with overlap
     ethr =  2.27E-07,  avg # of iterations =  2.0

     negative rho (up, down):  6.531E-02 0.000E+00

     total cpu time spent up to now is      590.0 secs

     total energy              =   -9109.85942633 Ry
     estimated scf accuracy    <       0.00010064 Ry

     iteration # 15     ecut=    60.00 Ry     beta= 0.20
     Davidson diagonalization with overlap
     ethr =  4.57E-08,  avg # of iterations =  2.2

     negative rho (up, down):  6.541E-02 0.000E+00

     total cpu time spent up to now is      627.2 secs

     total energy              =   -9109.85943064 Ry
     estimated scf accuracy    <       0.00008058 Ry

     iteration # 16     ecut=    60.00 Ry     beta= 0.20
     Davidson diagonalization with overlap
     ethr =  3.66E-08,  avg # of iterations =  2.0

     negative rho (up, down):  6.540E-02 0.000E+00

     total cpu time spent up to now is      664.6 secs

     total energy              =   -9109.85943470 Ry
     estimated scf accuracy    <       0.00004925 Ry

     iteration # 17     ecut=    60.00 Ry     beta= 0.20
     Davidson diagonalization with overlap
     ethr =  2.24E-08,  avg # of iterations =  1.3

     negative rho (up, down):  6.542E-02 0.000E+00

     total cpu time spent up to now is      701.8 secs

     total energy              =   -9109.85943806 Ry
     estimated scf accuracy    <       0.00003981 Ry

     iteration # 18     ecut=    60.00 Ry     beta= 0.20
     Davidson diagonalization with overlap
     ethr =  1.81E-08,  avg # of iterations =  1.1

     negative rho (up, down):  6.538E-02 0.000E+00

     total cpu time spent up to now is      738.7 secs

     total energy              =   -9109.85943996 Ry
     estimated scf accuracy    <       0.00000736 Ry

     iteration # 19     ecut=    60.00 Ry     beta= 0.20
     Davidson diagonalization with overlap
     ethr =  3.34E-09,  avg # of iterations =  2.0

     negative rho (up, down):  6.536E-02 0.000E+00

     total cpu time spent up to now is      775.7 secs

     total energy              =   -9109.85944023 Ry
     estimated scf accuracy    <       0.00000351 Ry

     iteration # 20     ecut=    60.00 Ry     beta= 0.20
     Davidson diagonalization with overlap
     ethr =  1.59E-09,  avg # of iterations =  2.0

     negative rho (up, down):  6.535E-02 0.000E+00

     total cpu time spent up to now is      812.9 secs

     total energy              =   -9109.85944056 Ry
     estimated scf accuracy    <       0.00000403 Ry

     iteration # 21     ecut=    60.00 Ry     beta= 0.20
     Davidson diagonalization with overlap
     ethr =  1.59E-09,  avg # of iterations =  1.0

     negative rho (up, down):  6.531E-02 0.000E+00

     total cpu time spent up to now is      850.0 secs

     total energy              =   -9109.85944073 Ry
     estimated scf accuracy    <       0.00000093 Ry

     iteration # 22     ecut=    60.00 Ry     beta= 0.20
     Davidson diagonalization with overlap
     ethr =  4.23E-10,  avg # of iterations =  2.0

     negative rho (up, down):  6.530E-02 0.000E+00

     total cpu time spent up to now is      887.0 secs

     total energy              =   -9109.85944081 Ry
     estimated scf accuracy    <       0.00000091 Ry

     iteration # 23     ecut=    60.00 Ry     beta= 0.20
     Davidson diagonalization with overlap
     ethr =  4.13E-10,  avg # of iterations =  1.0

     negative rho (up, down):  6.529E-02 0.000E+00

     total cpu time spent up to now is      924.4 secs

     total energy              =   -9109.85944088 Ry
     estimated scf accuracy    <       0.00000055 Ry

     iteration # 24     ecut=    60.00 Ry     beta= 0.20
     Davidson diagonalization with overlap
     ethr =  2.48E-10,  avg # of iterations =  1.0

     negative rho (up, down):  6.526E-02 0.000E+00

     total cpu time spent up to now is      961.3 secs

     total energy              =   -9109.85944091 Ry
     estimated scf accuracy    <       0.00000014 Ry

     iteration # 25     ecut=    60.00 Ry     beta= 0.20
     Davidson diagonalization with overlap
     ethr =  6.39E-11,  avg # of iterations =  2.0

     negative rho (up, down):  6.525E-02 0.000E+00

     total cpu time spent up to now is      998.4 secs

     total energy              =   -9109.85944092 Ry
     estimated scf accuracy    <       0.00000006 Ry

     iteration # 26     ecut=    60.00 Ry     beta= 0.20
     Davidson diagonalization with overlap
     ethr =  2.64E-11,  avg # of iterations =  2.0

     negative rho (up, down):  6.524E-02 0.000E+00

     total cpu time spent up to now is     1035.6 secs

     total energy              =   -9109.85944093 Ry
     estimated scf accuracy    <       0.00000006 Ry

     iteration # 27     ecut=    60.00 Ry     beta= 0.20
     Davidson diagonalization with overlap
     ethr =  2.64E-11,  avg # of iterations =  1.0

     negative rho (up, down):  6.523E-02 0.000E+00

     total cpu time spent up to now is     1072.6 secs

     total energy              =   -9109.85944093 Ry
     estimated scf accuracy    <       0.00000001 Ry

     iteration # 28     ecut=    60.00 Ry     beta= 0.20
     Davidson diagonalization with overlap
     ethr =  6.51E-12,  avg # of iterations =  2.0

     negative rho (up, down):  6.523E-02 0.000E+00

     total cpu time spent up to now is     1109.8 secs

     total energy              =   -9109.85944093 Ry
     estimated scf accuracy    <       0.00000002 Ry

     iteration # 29     ecut=    60.00 Ry     beta= 0.20
     Davidson diagonalization with overlap
     ethr =  6.51E-12,  avg # of iterations =  1.0

     negative rho (up, down):  6.521E-02 0.000E+00

     total cpu time spent up to now is     1146.5 secs

     End of self-consistent calculation

          k = 0.0000 0.0000 0.0000 ( 87479 PWs)   bands (ev):

  -103.5482-103.5047-103.4322-103.4162-103.0593-102.8677 -68.9950 -68.7743
   -68.7556 -68.7547 -64.1127 -64.0725 -64.0050 -63.9980 -63.9636 -63.8901
   -63.8388 -63.8272 -63.7788 -63.7726 -63.7253 -63.6818 -63.5605 -63.5261
   -63.3617 -63.3377 -63.3089 -63.1847 -35.4682 -35.3911 -35.3852 -35.2577
   -35.2466 -35.2402 -35.2258 -35.1977 -35.1900 -35.1889 -35.1848 -35.1822
   -13.0095 -12.7850 -12.5342 -12.2094 -12.1530 -11.9046 -11.8756 -11.8291
   -11.6929 -11.5707  -6.2496  -6.0507  -5.7997  -5.7136  -5.5304  -5.4460
    -5.3415  -4.7789  -4.7119  -4.2748  -4.2258  -3.9301  -3.8834  -3.8212
    -3.8207  -3.7404  -3.7354  -3.5519  -3.3914  -3.3208  -3.2697  -3.0715
    -2.8700  -2.7507  -2.7335  -2.7071  -2.6869  -2.5284  -2.4106  -2.3481
    -2.3410  -2.2681  -2.1643  -2.0804  -2.0354  -1.9585  -1.9191  -1.8657
    -1.8595  -1.7447  -1.6942  -1.5416  -1.4567  -1.3833  -1.3700  -1.3172
    -1.2738  -1.1820  -1.1678  -1.1585  -1.0518  -1.0266  -0.9134  -0.7892
    -0.7542  -0.6523  -0.5672  -0.4727  -0.2614  -0.0801  -0.0141   0.1006
     0.6568   0.6801   1.0141   1.0289   1.1435   1.2110   1.3651   1.4091
     1.5029   1.7549   1.8909   2.1029   2.2462   2.4085   2.9621   3.1398
     3.1737   3.2445   3.3202   3.5007

          k = 0.0000 0.4917 0.0000 ( 87423 PWs)   bands (ev):

  -103.5481-103.5048-103.4320-103.4164-103.0593-102.8677 -68.9948 -68.7742
   -68.7554 -68.7545 -64.1127 -64.0725 -64.0050 -63.9980 -63.9630 -63.8924
   -63.8381 -63.8251 -63.7816 -63.7728 -63.7227 -63.6821 -63.5605 -63.5260
   -63.3616 -63.3377 -63.3088 -63.1847 -35.4676 -35.3980 -35.3843 -35.2568
   -35.2457 -35.2392 -35.2250 -35.2047 -35.1959 -35.1894 -35.1889 -35.1841
   -12.9153 -12.6929 -12.4503 -12.1480 -12.0956 -11.8487 -11.8242 -11.7779
   -11.6363 -11.5338  -6.1649  -5.9685  -5.7033  -5.6135  -5.4544  -5.3434
    -5.2612  -4.7034  -4.6505  -4.2580  -4.2033  -4.0306  -3.9530  -3.9433
    -3.8914  -3.8498  -3.7191  -3.5450  -3.3881  -3.3356  -3.2731  -3.0545
    -2.9837  -2.8902  -2.8404  -2.8171  -2.7693  -2.7316  -2.6207  -2.3854
    -2.3109  -2.2736  -2.2406  -2.2031  -2.0489  -2.0298  -1.9662  -1.9116
    -1.8934  -1.8023  -1.7176  -1.6700  -1.6363  -1.6089  -1.4695  -1.4477
    -1.3940  -1.3403  -1.2387  -1.1031  -1.0786  -1.0251  -0.9858  -0.7929
    -0.7477  -0.7011  -0.6399  -0.5500  -0.2284  -0.0980   0.0197   0.2622
     0.5503   0.6793   0.8592   1.0235   1.1077   1.1477   1.2701   1.4409
     1.5066   1.6905   1.8279   1.9685   2.0933   2.4047   2.5545   2.7233
     2.7744   2.9017   3.2527   3.3407

          k = 0.0000 0.9833 0.0000 ( 87379 PWs)   bands (ev):

  -103.5479-103.5050-103.4314-103.4170-103.0593-102.8677 -68.9944 -68.7738
   -68.7550 -68.7541 -64.1127 -64.0727 -64.0048 -63.9984 -63.9610 -63.8981
   -63.8357 -63.8204 -63.7885 -63.7736 -63.7169 -63.6834 -63.5605 -63.5261
   -63.3616 -63.3378 -63.3088 -63.1848 -35.4658 -35.4158 -35.3819 -35.2546
   -35.2435 -35.2369 -35.2231 -35.2228 -35.2141 -35.2074 -35.1869 -35.1824
   -12.6455 -12.4308 -12.2141 -11.9962 -11.9256 -11.7178 -11.6685 -11.6247
   -11.4834 -11.4343  -5.9565  -5.7603  -5.4586  -5.3955  -5.2481  -5.0866
    -5.0498  -4.7133  -4.5541  -4.3862  -4.2685  -4.2200  -4.1407  -4.1057
    -4.0538  -3.9903  -3.8254  -3.6715  -3.6156  -3.4931  -3.3857  -3.3359
    -3.2498  -3.1348  -3.0885  -2.9619  -2.9108  -2.8435  -2.7518  -2.6266
    -2.5619  -2.4918  -2.4635  -2.4145  -2.2631  -2.2285  -2.1594  -2.1173
    -2.0650  -1.9301  -1.8464  -1.7575  -1.7366  -1.6654  -1.5815  -1.5614
    -1.4987  -1.4515  -1.3821  -1.2052  -1.1225  -1.0514  -1.0103  -0.9696
    -0.9164  -0.8954  -0.7046  -0.5780  -0.4338  -0.3397   0.3268   0.5551
     0.5790   0.8148   0.8548   0.9359   0.9808   1.0821   1.1232   1.3031
     1.5742   1.5941   1.6589   1.9121   2.0964   2.1512   2.3252   2.3872
     2.5295   2.6557   3.6440   3.7082

          k = 0.0000 1.4750 0.0000 ( 87309 PWs)   bands (ev):

  -103.5477-103.5052-103.4307-103.4177-103.0593-102.8677 -68.9939 -68.7732
   -68.7545 -68.7536 -64.1128 -64.0730 -64.0046 -63.9987 -63.9580 -63.9051
   -63.8317 -63.8150 -63.7972 -63.7749 -63.7099 -63.6857 -63.5605 -63.5261
   -63.3616 -63.3378 -63.3088 -63.1848 -35.4637 -35.4376 -35.3789 -35.2521
   -35.2453 -35.2407 -35.2370 -35.2334 -35.2298 -35.2203 -35.1841 -35.1804
   -12.2441 -12.0473 -11.8819 -11.7972 -11.6957 -11.5756 -11.4307 -11.4093
   -11.3142 -11.2811  -5.8427  -5.6571  -5.4941  -5.4265  -5.1636  -5.0898
    -4.9551  -4.9178  -4.7224  -4.6237  -4.4819  -4.3108  -4.2421  -4.1864
    -4.1330  -4.0917  -3.8974  -3.8598  -3.7541  -3.6345  -3.5750  -3.5307
    -3.5013  -3.2602  -3.1442  -3.1111  -3.0777  -2.9008  -2.8582  -2.7896
    -2.7584  -2.7421  -2.6037  -2.4982  -2.4434  -2.3080  -2.2420  -2.1830
    -2.1419  -2.0806  -2.0066  -1.9061  -1.8617  -1.7488  -1.6751  -1.6357
    -1.5353  -1.4963  -1.4420  -1.3598  -1.2471  -1.2074  -1.1848  -1.1557
    -0.9684  -0.9366  -0.8377  -0.6922  -0.6636  -0.5385   0.4162   0.5438
     0.6539   0.7790   0.9278   1.0333   1.2101   1.2407   1.2804   1.3393
     1.5647   1.6467   1.6837   1.9629   2.0230   2.3158   2.4168   2.5269
     2.7655   2.8143   3.4758   3.5657

          k = 0.0000 1.9666 0.0000 ( 87163 PWs)   bands (ev):

  -103.5475-103.5054-103.4300-103.4183-103.0593-102.8677 -68.9935 -68.7728
   -68.7540 -68.7532 -64.1129 -64.0732 -64.0045 -63.9991 -63.9549 -63.9108
   -63.8263 -63.8107 -63.8055 -63.7760 -63.7036 -63.6884 -63.5605 -63.5260
   -63.3615 -63.3377 -63.3088 -63.1847 -35.4620 -35.4553 -35.3765 -35.2637
   -35.2547 -35.2496 -35.2481 -35.2383 -35.2314 -35.2181 -35.1817 -35.1788
   -11.8083 -11.6579 -11.6268 -11.5471 -11.4847 -11.4496 -11.2897 -11.2044
   -11.1898 -11.1373  -6.1139  -6.0921  -6.0129  -6.0073  -5.3457  -5.1597
    -5.0780  -5.0513  -4.8203  -4.7591  -4.4460  -4.3897  -4.2655  -4.0036
    -3.9172  -3.8997  -3.7703  -3.7194  -3.6904  -3.6650  -3.5657  -3.5221
    -3.4357  -3.4186  -3.2863  -3.2255  -3.1553  -3.0226  -2.9471  -2.9134
    -2.7514  -2.7177  -2.6333  -2.5620  -2.3939  -2.3141  -2.2827  -2.2411
    -2.2210  -2.1355  -2.1133  -2.0096  -1.9828  -1.8933  -1.8405  -1.7651
    -1.5834  -1.5067  -1.4601  -1.4234  -1.3400  -1.3250  -1.2645  -1.2554
    -1.1028  -0.9895  -0.9368  -0.8870  -0.7824  -0.7401   0.2620   0.3567
     0.7865   0.8789   0.9804   1.0820   1.1319   1.4962   1.6043   1.7107
     1.7550   1.7842   1.9146   1.9507   2.0652   2.2870   2.5892   2.7028
     2.9050   3.1112   3.1706   3.2379

          k = 0.0000-2.4583 0.0000 ( 87034 PWs)   bands (ev):

  -103.5474-103.5054-103.4297-103.4186-103.0593-102.8677 -68.9933 -68.7727
   -68.7539 -68.7531 -64.1130 -64.0733 -64.0044 -63.9993 -63.9533 -63.9129
   -63.8227 -63.8098 -63.8090 -63.7765 -63.7005 -63.6902 -63.5605 -63.5260
   -63.3615 -63.3374 -63.3088 -63.1844 -35.4621 -35.4612 -35.3755 -35.2706
   -35.2616 -35.2549 -35.2488 -35.2375 -35.2305 -35.2173 -35.1808 -35.1782
   -11.6011 -11.5120 -11.4589 -11.4224 -11.3931 -11.3708 -11.3058 -11.1375
   -11.1302 -11.1008  -6.3312  -6.3195  -6.2624  -6.2428  -5.5369  -5.3426
    -5.1086  -5.0318  -4.9426  -4.9205  -4.2185  -4.1847  -4.1138  -4.0666
    -3.9330  -3.8878  -3.6399  -3.6226  -3.5894  -3.5816  -3.5688  -3.4974
    -3.4018  -3.3857  -3.2702  -3.2553  -3.1640  -3.1279  -3.0837  -3.0256
    -2.6817  -2.6654  -2.5587  -2.5524  -2.3652  -2.3605  -2.3163  -2.2691
    -2.2515  -2.1891  -2.0681  -1.9977  -1.9912  -1.9518  -1.9434  -1.9150
    -1.6100  -1.4949  -1.4457  -1.4170  -1.4132  -1.3511  -1.2904  -1.2553
    -1.1286  -1.1080  -1.0427  -1.0379  -0.8137  -0.7675   0.2550   0.2629
     0.8630   0.8841   1.0168   1.0372   1.2157   1.2521   1.6499   1.6889
     1.9686   2.0641   2.0662   2.1227   2.1962   2.2602   2.5337   2.5339
     2.8543   2.8903   3.1755   3.2579

          k =-0.5000 0.0000 0.0000 ( 87516 PWs)   bands (ev):

  -103.5482-103.5047-103.4322-103.4162-103.0593-102.8677 -68.9950 -68.7743
   -68.7556 -68.7547 -64.1128 -64.0726 -64.0051 -63.9981 -63.9637 -63.8902
   -63.8389 -63.8271 -63.7789 -63.7725 -63.7251 -63.6817 -63.5606 -63.5261
   -63.3616 -63.3377 -63.3089 -63.1848 -35.4682 -35.3911 -35.3852 -35.2577
   -35.2466 -35.2402 -35.2258 -35.1977 -35.1900 -35.1889 -35.1848 -35.1822
   -12.9754 -12.8711 -12.3889 -12.2849 -12.1427 -12.0490 -11.8460 -11.7139
   -11.6556 -11.6362  -6.2095  -6.1240  -5.7932  -5.7846  -5.5093  -5.3912
    -5.1158  -4.9780  -4.6704  -4.5807  -3.9694  -3.9389  -3.8405  -3.8202
    -3.7633  -3.7365  -3.6144  -3.5238  -3.4185  -3.3905  -3.3198  -3.2744
    -2.8752  -2.7642  -2.7245  -2.6978  -2.6662  -2.5823  -2.3993  -2.3522
    -2.2541  -2.1986  -2.1188  -2.0964  -2.0455  -1.9700  -1.8934  -1.8882
    -1.8678  -1.7913  -1.6995  -1.5633  -1.4569  -1.3720  -1.3133  -1.3071
    -1.2450  -1.1900  -1.1718  -1.1283  -1.1213  -1.0537  -0.7918  -0.7884
    -0.7543  -0.7415  -0.5727  -0.4618  -0.1950  -0.0837  -0.0244   0.0151
     0.7971   0.8389   0.8960   0.9203   1.1385   1.2076   1.2468   1.2856
     1.5513   1.7199   2.0834   2.1427   2.2139   2.2693   3.1283   3.1640
     3.2061   3.2217   3.3917   3.4635

          k =-0.5000 0.4917 0.0000 ( 87468 PWs)   bands (ev):

  -103.5481-103.5048-103.4320-103.4164-103.0593-102.8677 -68.9948 -68.7742
   -68.7554 -68.7545 -64.1127 -64.0726 -64.0050 -63.9981 -63.9630 -63.8924
   -63.8381 -63.8252 -63.7816 -63.7728 -63.7228 -63.6822 -63.5606 -63.5261
   -63.3616 -63.3377 -63.3089 -63.1847 -35.4676 -35.3980 -35.3843 -35.2568
   -35.2457 -35.2392 -35.2250 -35.2047 -35.1959 -35.1894 -35.1889 -35.1841
   -12.8821 -12.7777 -12.3089 -12.2075 -12.0934 -11.9983 -11.7912 -11.6571
   -11.6115 -11.5953  -6.1244  -6.0395  -5.6959  -5.6873  -5.4228  -5.2970
    -5.0381  -4.9078  -4.6238  -4.5396  -4.0533  -4.0376  -3.9460  -3.9050
    -3.7477  -3.7152  -3.6619  -3.5450  -3.4830  -3.4685  -3.2630  -3.1690
    -3.0091  -2.8957  -2.8538  -2.8092  -2.7819  -2.7534  -2.5010  -2.4514
    -2.2891  -2.2591  -2.2159  -2.1310  -2.0886  -2.0239  -1.9675  -1.9369
    -1.8738  -1.8309  -1.7861  -1.6628  -1.6069  -1.5836  -1.5088  -1.4338
    -1.3932  -1.2854  -1.2193  -1.1507  -1.0128  -1.0034  -0.9121  -0.8943
    -0.7507  -0.7235  -0.6463  -0.5808  -0.2088  -0.0868   0.1000   0.1827
     0.6053   0.6799   0.9704   1.0344   1.0861   1.1317   1.2396   1.2748
     1.4684   1.6227   1.9127   2.0020   2.0959   2.2659   2.6390   2.7093
     2.7973   2.8553   3.4055   3.4357

          k =-0.5000 0.9833 0.0000 ( 87378 PWs)   bands (ev):

  -103.5479-103.5050-103.4314-103.4170-103.0593-102.8677 -68.9944 -68.7738
   -68.7550 -68.7541 -64.1127 -64.0727 -64.0048 -63.9983 -63.9610 -63.8981
   -63.8356 -63.8204 -63.7885 -63.7737 -63.7169 -63.6835 -63.5605 -63.5261
   -63.3616 -63.3378 -63.3088 -63.1848 -35.4658 -35.4158 -35.3819 -35.2546
   -35.2435 -35.2369 -35.2231 -35.2228 -35.2141 -35.2074 -35.1869 -35.1824
   -12.6156 -12.5105 -12.0864 -12.0018 -11.9513 -11.8539 -11.6455 -11.5170
   -11.4887 -11.4701  -5.9125  -5.8270  -5.4471  -5.4434  -5.2020  -5.0558
    -4.9222  -4.8677  -4.5247  -4.5183  -4.2641  -4.2355  -4.1919  -4.1561
    -3.8654  -3.7974  -3.7361  -3.6848  -3.6456  -3.5140  -3.4671  -3.3593
    -3.2709  -3.2018  -3.0785  -3.0366  -2.8973  -2.8227  -2.7380  -2.6604
    -2.5602  -2.4990  -2.4783  -2.4053  -2.2583  -2.2045  -2.1789  -2.0889
    -2.0086  -1.9690  -1.8904  -1.7658  -1.6898  -1.6474  -1.6234  -1.5103
    -1.4874  -1.3888  -1.3280  -1.2925  -1.1866  -1.1016  -1.0403  -0.9967
    -0.9299  -0.8691  -0.6093  -0.5487  -0.4202  -0.3230   0.3699   0.4351
     0.6689   0.7547   0.9291   0.9575   1.0138   1.1470   1.2099   1.2575
     1.3448   1.4625   1.7654   1.8274   2.0854   2.1944   2.3441   2.4419
     2.4943   2.5961   3.7215   3.7666

          k =-0.5000 1.4750 0.0000 ( 87280 PWs)   bands (ev):

  -103.5477-103.5052-103.4307-103.4177-103.0593-102.8677 -68.9939 -68.7732
   -68.7545 -68.7536 -64.1128 -64.0730 -64.0046 -63.9988 -63.9580 -63.9051
   -63.8317 -63.8149 -63.7971 -63.7748 -63.7099 -63.6856 -63.5605 -63.5260
   -63.3616 -63.3378 -63.3088 -63.1848 -35.4637 -35.4376 -35.3789 -35.2521
   -35.2453 -35.2407 -35.2370 -35.2334 -35.2298 -35.2203 -35.1841 -35.1804
   -12.2210 -12.1148 -11.7890 -11.7845 -11.7147 -11.6294 -11.4624 -11.3645
   -11.3218 -11.2752  -5.8028  -5.7221  -5.4323  -5.3747  -5.2107  -5.1676
    -5.0338  -4.8996  -4.6775  -4.6041  -4.5060  -4.3489  -4.1861  -4.0910
    -4.0856  -4.0067  -3.9671  -3.9393  -3.7427  -3.6782  -3.6172  -3.5545
    -3.2891  -3.2659  -3.2005  -3.1427  -3.0756  -2.9464  -2.9299  -2.8522
    -2.7061  -2.6416  -2.6247  -2.5910  -2.3941  -2.3161  -2.2385  -2.1667
    -2.1199  -2.0981  -2.0513  -1.9686  -1.7593  -1.7035  -1.6808  -1.6363
    -1.5284  -1.4888  -1.4302  -1.4003  -1.2884  -1.2099  -1.1987  -1.1257
    -0.9915  -0.9215  -0.7944  -0.7460  -0.6364  -0.5450   0.4249   0.4716
     0.8450   0.8687   0.9538   1.0341   1.1850   1.2196   1.2314   1.2863
     1.4999   1.6135   1.7493   1.7880   2.1446   2.2908   2.5059   2.5501
     2.6683   2.7129   3.5697   3.6220

          k =-0.5000 1.9666 0.0000 ( 87146 PWs)   bands (ev):

  -103.5475-103.5054-103.4300-103.4183-103.0593-102.8677 -68.9935 -68.7728
   -68.7540 -68.7532 -64.1129 -64.0732 -64.0045 -63.9991 -63.9548 -63.9108
   -63.8263 -63.8107 -63.8054 -63.7760 -63.7036 -63.6884 -63.5605 -63.5260
   -63.3615 -63.3376 -63.3088 -63.1847 -35.4620 -35.4553 -35.3765 -35.2637
   -35.2547 -35.2496 -35.2481 -35.2383 -35.2314 -35.2181 -35.1817 -35.1788
   -11.7988 -11.6918 -11.6072 -11.5517 -11.4897 -11.4145 -11.3142 -11.2087
   -11.1860 -11.1330  -6.1617  -6.1308  -5.9492  -5.9413  -5.3768  -5.2041
    -5.1007  -5.0364  -4.8072  -4.7315  -4.4679  -4.3953  -4.2096  -4.0210
    -3.9847  -3.8882  -3.8046  -3.7656  -3.6556  -3.6422  -3.5532  -3.5044
    -3.4089  -3.3551  -3.2796  -3.1779  -3.1352  -3.0602  -2.9796  -2.9267
    -2.7670  -2.7087  -2.5817  -2.5674  -2.4711  -2.3831  -2.2750  -2.2392
    -2.2089  -2.1570  -2.1207  -2.0780  -1.8694  -1.8437  -1.8040  -1.7897
    -1.6019  -1.5083  -1.4654  -1.4208  -1.4041  -1.3262  -1.2374  -1.1620
    -1.1385  -1.0967  -0.9143  -0.8509  -0.7757  -0.7629   0.2983   0.3229
     0.8694   0.9244   1.0395   1.0575   1.2122   1.3031   1.6330   1.6716
     1.7416   1.7793   1.9075   1.9728   2.0522   2.1912   2.7258   2.7941
     2.8044   2.8777   3.2183   3.2645

          k =-0.5000-2.4583 0.0000 ( 87092 PWs)   bands (ev):

  -103.5474-103.5054-103.4297-103.4186-103.0593-102.8677 -68.9933 -68.7727
   -68.7539 -68.7531 -64.1130 -64.0733 -64.0044 -63.9993 -63.9533 -63.9130
   -63.8227 -63.8098 -63.8091 -63.7765 -63.7006 -63.6903 -63.5605 -63.5260
   -63.3616 -63.3375 -63.3089 -63.1845 -35.4621 -35.4612 -35.3755 -35.2706
   -35.2616 -35.2549 -35.2488 -35.2375 -35.2305 -35.2173 -35.1808 -35.1782
   -11.6011 -11.5119 -11.4589 -11.4246 -11.3928 -11.3632 -11.3126 -11.1417
   -11.1288 -11.0969  -6.3949  -6.3720  -6.1790  -6.1770  -5.5563  -5.3450
    -5.1297  -5.0133  -4.9469  -4.9378  -4.2213  -4.1934  -4.1568  -4.0042
    -3.8875  -3.8657  -3.7412  -3.6387  -3.6339  -3.5817  -3.5313  -3.4849
    -3.4597  -3.4057  -3.3040  -3.2945  -3.0263  -2.9976  -2.9812  -2.9474
    -2.7721  -2.7497  -2.5635  -2.5480  -2.4097  -2.4077  -2.3414  -2.2670
    -2.2510  -2.2431  -2.0394  -1.9972  -1.9881  -1.9428  -1.8970  -1.8584
    -1.6323  -1.4930  -1.4828  -1.4509  -1.4187  -1.3290  -1.2558  -1.2473
    -1.1933  -1.1175  -1.0413  -1.0123  -0.8090  -0.7634   0.2618   0.2683
     0.9063   0.9664   1.0178   1.0373   1.1518   1.1934   1.6872   1.7473
     1.8761   1.9682   2.0817   2.1435   2.2001   2.2603   2.6173   2.6264
     2.7123   2.7361   3.3722   3.4686

     the Fermi energy is    -0.0486 ev

!    total energy              =   -9109.85944093 Ry
     total all-electron energy =     -9109.859441 Ry
     estimated scf accuracy    <          4.2E-09 Ry
     smearing contrib. (-TS)   =      -0.00008271 Ry
     internal energy E=F+TS    =   -9109.85935822 Ry

     The total energy is F=E-TS. E is the sum of the following terms:
     one-electron contribution =  -16161.33918145 Ry
     hartree contribution      =    7938.53714543 Ry
     xc contribution           =    -364.76890626 Ry
     ewald contribution        =    5745.39589233 Ry
     one-center paw contrib.   =   -6267.68430828 Ry

     convergence has been achieved in  29 iterations

     negative rho (up, down):  6.521E-02 0.000E+00

     Forces acting on atoms (cartesian axes, Ry/au):

     atom    1 type  1   force =     0.03700053    0.00000000   -0.00964108
     atom    2 type  1   force =    -0.00184563    0.00000000   -0.00048491
     atom    3 type  1   force =    -0.01165200    0.00000000    0.00083890
     atom    4 type  1   force =    -0.00587812    0.00000000    0.00184225
     atom    5 type  2   force =     0.00644314    0.00000000    0.00032859
     atom    6 type  2   force =    -0.00032589    0.00000000   -0.00097224
     atom    7 type  2   force =     0.00027327    0.00000000   -0.00016694
     atom    8 type  2   force =     0.00756444    0.00000000   -0.00213803
     atom    9 type  2   force =     0.00145094    0.00000000    0.00007832
     atom   10 type  2   force =    -0.02245467    0.00000000    0.00443342
     atom   11 type  3   force =     0.00891879    0.00000000   -0.00123616
     atom   12 type  3   force =     0.00032667    0.00000000    0.00029148
     atom   13 type  3   force =    -0.00025290    0.00000000   -0.00041003
     atom   14 type  3   force =    -0.00801236    0.00000000    0.00223247
     atom   15 type  3   force =     0.00208202    0.00000000   -0.00071933
     atom   16 type  3   force =    -0.00126270    0.00000000    0.00012826
     atom   17 type  3   force =    -0.00023205    0.00000000    0.00011250
     atom   18 type  3   force =     0.02450539    0.00000000   -0.01834675
     atom   19 type  3   force =    -0.03832772    0.00000000    0.02387858
     atom   20 type  3   force =     0.00167887    0.00000000   -0.00004932

     Total force =     0.073532     Total SCF correction =     0.000262


     Computing stress (Cartesian axis) and pressure


     negative rho (up, down):  6.521E-02 0.000E+00
          total   stress  (Ry/bohr**3)                   (kbar)     P=       -5.15
  -0.00004302   0.00000000   0.00001221           -6.33        0.00        1.80
   0.00000000  -0.00001250   0.00000000            0.00       -1.84        0.00
   0.00001221   0.00000000  -0.00004950            1.80        0.00       -7.28


     BFGS Geometry Optimization
     Energy error            =      0.0E+00 Ry
     Gradient error          =      3.8E-02 Ry/Bohr

     number of scf cycles    =   1
     number of bfgs steps    =   0

     energy             new  =   -9109.8594409302 Ry

     new trust radius        =       0.0451575125 bohr
     new conv_thr            =       0.0000000100 Ry


ATOMIC_POSITIONS (angstrom)
Ta              15.4114206622        0.9149235643       12.4387383957
Ta               6.5705738459        2.7447696811       12.5917397308
Ta               2.2589896386        0.9149235643       12.4441098888
Ta              11.0823427770        2.7447696811       12.5931313640
Ni              12.8678177226        0.9149235643       11.7618634790
Ni               4.0439276717        2.7447696811       13.2736294627
Ni               4.7926113335        0.9149235643       11.7613346182
Ni              13.6167635424        2.7447696811       13.2732696109
Ni               8.8291144694        0.9149235643       12.3682470428
Ni              -0.0038055951        2.7447696811       12.6699558752
Te              14.2177619946        2.7447696811       10.5346026037
Te               5.3928947223        0.9149235643       14.5007263514
Te              10.5952992867        0.9149235643       10.5191168973
Te               1.7709101250        2.7447696811       14.5176763263
Te               3.4447904494        2.7447696811       10.5346528899
Te              12.2633213428        0.9149235643       14.5008604192
Te               7.0614956235        0.9149235643       10.5192308065
Te              15.8948696009        2.7447696811       14.5069584479
Te              -0.0119832332        0.9149235643       10.8502550681
Te               8.8294463833        2.7447696811       14.1981517213



     Writing config-only to output data dir /ddn/data/physics/eamoujaes/2D-Ta2Ni3Te5/ELASTIC/OUT/ta2ni3te5.save/ :
     XML data file
     NEW-OLD atomic charge density approx. for the potential

     negative rho (up, down):  6.531E-02 0.000E+00

     total cpu time spent up to now is     1241.5 secs

     Self-consistent Calculation

     iteration #  1     ecut=    60.00 Ry     beta= 0.20
     Davidson diagonalization with overlap
     c_bands:  1 eigenvalues not converged
     c_bands:  1 eigenvalues not converged
     c_bands:  1 eigenvalues not converged
     c_bands:  1 eigenvalues not converged
     ethr =  1.00E-06,  avg # of iterations = 11.3

     negative rho (up, down):  6.529E-02 0.000E+00

     total cpu time spent up to now is     1281.8 secs

     total energy              =   -9109.86357990 Ry
     estimated scf accuracy    <       0.00283463 Ry

     iteration #  2     ecut=    60.00 Ry     beta= 0.20
     Davidson diagonalization with overlap
     c_bands:  1 eigenvalues not converged
     ethr =  1.29E-06,  avg # of iterations = 13.3

     negative rho (up, down):  6.529E-02 0.000E+00

     total cpu time spent up to now is     1320.4 secs

     total energy              =   -9109.86263572 Ry
     estimated scf accuracy    <       0.04961536 Ry

     iteration #  3     ecut=    60.00 Ry     beta= 0.20
     Davidson diagonalization with overlap
     ethr =  1.29E-06,  avg # of iterations =  8.4

     negative rho (up, down):  6.529E-02 0.000E+00

     total cpu time spent up to now is     1358.3 secs

     total energy              =   -9109.86445270 Ry
     estimated scf accuracy    <       0.00133519 Ry

     iteration #  4     ecut=    60.00 Ry     beta= 0.20
     Davidson diagonalization with overlap
     ethr =  6.07E-07,  avg # of iterations =  2.0

     negative rho (up, down):  6.529E-02 0.000E+00

     total cpu time spent up to now is     1395.3 secs

     total energy              =   -9109.86451956 Ry
     estimated scf accuracy    <       0.00020834 Ry

     iteration #  5     ecut=    60.00 Ry     beta= 0.20
     Davidson diagonalization with overlap
     ethr =  9.47E-08,  avg # of iterations =  2.0

     negative rho (up, down):  6.528E-02 0.000E+00

     total cpu time spent up to now is     1432.6 secs

     total energy              =   -9109.86453413 Ry
     estimated scf accuracy    <       0.00017555 Ry

     iteration #  6     ecut=    60.00 Ry     beta= 0.20
     Davidson diagonalization with overlap
     ethr =  7.98E-08,  avg # of iterations =  1.2

     negative rho (up, down):  6.527E-02 0.000E+00

     total cpu time spent up to now is     1469.6 secs

     total energy              =   -9109.86453751 Ry
     estimated scf accuracy    <       0.00008417 Ry

     iteration #  7     ecut=    60.00 Ry     beta= 0.20
     Davidson diagonalization with overlap
     ethr =  3.83E-08,  avg # of iterations =  1.7

     negative rho (up, down):  6.527E-02 0.000E+00

     total cpu time spent up to now is     1506.8 secs

     total energy              =   -9109.86454290 Ry
     estimated scf accuracy    <       0.00003669 Ry

     iteration #  8     ecut=    60.00 Ry     beta= 0.20
     Davidson diagonalization with overlap
     ethr =  1.67E-08,  avg # of iterations =  1.4

     negative rho (up, down):  6.526E-02 0.000E+00

     total cpu time spent up to now is     1543.8 secs

     total energy              =   -9109.86454524 Ry
     estimated scf accuracy    <       0.00001635 Ry

     iteration #  9     ecut=    60.00 Ry     beta= 0.20
     Davidson diagonalization with overlap
     ethr =  7.43E-09,  avg # of iterations =  1.8

     negative rho (up, down):  6.526E-02 0.000E+00

     total cpu time spent up to now is     1581.1 secs

     total energy              =   -9109.86454680 Ry
     estimated scf accuracy    <       0.00000463 Ry

     iteration # 10     ecut=    60.00 Ry     beta= 0.20
     Davidson diagonalization with overlap
     ethr =  2.10E-09,  avg # of iterations =  2.1

     negative rho (up, down):  6.526E-02 0.000E+00

     total cpu time spent up to now is     1618.6 secs

     total energy              =   -9109.86454763 Ry
     estimated scf accuracy    <       0.00000199 Ry

     iteration # 11     ecut=    60.00 Ry     beta= 0.20
     Davidson diagonalization with overlap
     ethr =  9.05E-10,  avg # of iterations =  2.1

     negative rho (up, down):  6.526E-02 0.000E+00

     total cpu time spent up to now is     1655.7 secs

     total energy              =   -9109.86454797 Ry
     estimated scf accuracy    <       0.00000041 Ry

     iteration # 12     ecut=    60.00 Ry     beta= 0.20
     Davidson diagonalization with overlap
     ethr =  1.87E-10,  avg # of iterations =  2.5

     negative rho (up, down):  6.525E-02 0.000E+00

     total cpu time spent up to now is     1693.6 secs

     total energy              =   -9109.86454813 Ry
     estimated scf accuracy    <       0.00000043 Ry

     iteration # 13     ecut=    60.00 Ry     beta= 0.20
     Davidson diagonalization with overlap
     ethr =  1.87E-10,  avg # of iterations =  2.0

     negative rho (up, down):  6.525E-02 0.000E+00

     total cpu time spent up to now is     1730.8 secs

     total energy              =   -9109.86454823 Ry
     estimated scf accuracy    <       0.00000011 Ry

     iteration # 14     ecut=    60.00 Ry     beta= 0.20
     Davidson diagonalization with overlap
     ethr =  5.03E-11,  avg # of iterations =  3.5

     negative rho (up, down):  6.525E-02 0.000E+00

     total cpu time spent up to now is     1768.5 secs

     total energy              =   -9109.86454823 Ry
     estimated scf accuracy    <       0.00000010 Ry

     iteration # 15     ecut=    60.00 Ry     beta= 0.20
     Davidson diagonalization with overlap
     ethr =  4.42E-11,  avg # of iterations =  2.0

     negative rho (up, down):  6.525E-02 0.000E+00

     total cpu time spent up to now is     1805.9 secs

     total energy              =   -9109.86454824 Ry
     estimated scf accuracy    <       0.00000002 Ry

     iteration # 16     ecut=    60.00 Ry     beta= 0.20
     Davidson diagonalization with overlap
     ethr =  7.69E-12,  avg # of iterations =  4.8

     negative rho (up, down):  6.525E-02 0.000E+00

     total cpu time spent up to now is     1843.6 secs

     End of self-consistent calculation

          k = 0.0000 0.0000 0.0000 ( 87479 PWs)   bands (ev):

  -103.5118-103.4763-103.4362-103.4207-103.0606-102.8919 -68.9783 -68.7749
   -68.7710 -68.7600 -64.0782 -64.0433 -64.0081 -64.0021 -63.9271 -63.8599
   -63.8440 -63.7927 -63.7838 -63.7427 -63.7291 -63.6857 -63.5620 -63.5273
   -63.3848 -63.3388 -63.3359 -63.2065 -35.4481 -35.3766 -35.3718 -35.2580
   -35.2542 -35.2516 -35.2207 -35.2046 -35.2041 -35.1942 -35.1938 -35.1873
   -13.0047 -12.7755 -12.5414 -12.1946 -12.1544 -11.9031 -11.8776 -11.8418
   -11.7107 -11.5713  -6.2394  -6.0418  -5.7996  -5.7099  -5.5270  -5.4490
    -5.3513  -4.7833  -4.7044  -4.2611  -4.2333  -3.9052  -3.8849  -3.8197
    -3.7856  -3.7368  -3.7363  -3.5662  -3.3551  -3.3210  -3.2662  -3.0788
    -2.8603  -2.7429  -2.7396  -2.6954  -2.6850  -2.5187  -2.3918  -2.3537
    -2.3412  -2.2565  -2.1651  -2.0887  -2.0236  -1.9478  -1.9218  -1.8814
    -1.8740  -1.7428  -1.6972  -1.5542  -1.4350  -1.3766  -1.3655  -1.3152
    -1.2659  -1.1913  -1.1701  -1.1493  -1.0501  -1.0281  -0.9141  -0.7940
    -0.7539  -0.6599  -0.5610  -0.4781  -0.2611  -0.0763  -0.0207   0.0882
     0.6603   0.6901   1.0115   1.0205   1.1449   1.2021   1.3554   1.4073
     1.5149   1.7537   1.8959   2.0974   2.2496   2.4206   2.9681   3.1745
     3.1846   3.2365   3.3178   3.3277

          k = 0.0000 0.4917 0.0000 ( 87423 PWs)   bands (ev):

  -103.5117-103.4764-103.4360-103.4209-103.0606-102.8919 -68.9781 -68.7747
   -68.7709 -68.7599 -64.0782 -64.0433 -64.0080 -64.0022 -63.9264 -63.8623
   -63.8433 -63.7906 -63.7866 -63.7429 -63.7265 -63.6861 -63.5620 -63.5272
   -63.3847 -63.3389 -63.3359 -63.2066 -35.4474 -35.3835 -35.3709 -35.2571
   -35.2534 -35.2508 -35.2199 -35.2116 -35.2033 -35.2011 -35.1943 -35.1931
   -12.9105 -12.6835 -12.4575 -12.1331 -12.0968 -11.8475 -11.8261 -11.7902
   -11.6547 -11.5344  -6.1545  -5.9597  -5.7032  -5.6096  -5.4515  -5.3465
    -5.2714  -4.7058  -4.6430  -4.2432  -4.2087  -4.0187  -3.9354  -3.9318
    -3.8850  -3.8407  -3.7166  -3.5602  -3.3667  -3.3330  -3.2670  -3.0512
    -2.9871  -2.8600  -2.8459  -2.8204  -2.7768  -2.7323  -2.6093  -2.3656
    -2.3041  -2.2751  -2.2389  -2.2019  -2.0621  -2.0216  -1.9642  -1.9160
    -1.8943  -1.8063  -1.7207  -1.6714  -1.6392  -1.6150  -1.4677  -1.4186
    -1.3942  -1.3420  -1.2356  -1.1007  -1.0689  -1.0281  -0.9915  -0.7992
    -0.7402  -0.6985  -0.6448  -0.5581  -0.2277  -0.1086   0.0196   0.2577
     0.5502   0.6862   0.8608   1.0199   1.1083   1.1433   1.2677   1.4348
     1.5176   1.6935   1.8260   1.9691   2.0939   2.4132   2.5575   2.7272
     2.7694   2.9010   3.2698   3.3615

          k = 0.0000 0.9833 0.0000 ( 87379 PWs)   bands (ev):

  -103.5114-103.4767-103.4354-103.4215-103.0606-102.8919 -68.9777 -68.7743
   -68.7705 -68.7595 -64.0783 -64.0435 -64.0078 -64.0026 -63.9242 -63.8682
   -63.8409 -63.7934 -63.7858 -63.7440 -63.7207 -63.6874 -63.5620 -63.5272
   -63.3847 -63.3389 -63.3359 -63.2066 -35.4457 -35.4013 -35.3685 -35.2547
   -35.2512 -35.2485 -35.2298 -35.2194 -35.2178 -35.2126 -35.2012 -35.1912
   -12.6407 -12.4217 -12.2211 -11.9852 -11.9222 -11.7195 -11.6698 -11.6334
   -11.5030 -11.4353  -5.9457  -5.7518  -5.4587  -5.3907  -5.2468  -5.0895
    -5.0593  -4.6998  -4.5528  -4.3733  -4.2570  -4.2094  -4.1327  -4.1063
    -4.0424  -3.9935  -3.8305  -3.6690  -3.6178  -3.4955  -3.3738  -3.3276
    -3.2607  -3.1337  -3.0900  -2.9554  -2.9019  -2.8452  -2.7498  -2.6245
    -2.5558  -2.4835  -2.4590  -2.4172  -2.2512  -2.2289  -2.1626  -2.1152
    -2.0650  -1.9249  -1.8467  -1.7593  -1.7409  -1.6572  -1.5824  -1.5622
    -1.4792  -1.4436  -1.3861  -1.1914  -1.1239  -1.0492  -1.0148  -0.9830
    -0.9241  -0.8871  -0.7067  -0.5751  -0.4340  -0.3524   0.3248   0.5565
     0.5754   0.8122   0.8609   0.9304   0.9893   1.0855   1.1183   1.3145
     1.5727   1.5937   1.6604   1.9144   2.0999   2.1572   2.3290   2.3820
     2.5295   2.6549   3.6764   3.7157

          k = 0.0000 1.4750 0.0000 ( 87309 PWs)   bands (ev):

  -103.5111-103.4769-103.4346-103.4222-103.0606-102.8919 -68.9772 -68.7738
   -68.7700 -68.7589 -64.0783 -64.0437 -64.0075 -64.0030 -63.9207 -63.8756
   -63.8369 -63.8020 -63.7801 -63.7456 -63.7137 -63.6898 -63.5619 -63.5273
   -63.3848 -63.3389 -63.3358 -63.2066 -35.4435 -35.4232 -35.3656 -35.2532
   -35.2508 -35.2486 -35.2458 -35.2417 -35.2349 -35.2153 -35.1988 -35.1888
   -12.2392 -12.0387 -11.8881 -11.7872 -11.6907 -11.5793 -11.4349 -11.4104
   -11.3187 -11.3008  -5.8328  -5.6494  -5.4802  -5.4281  -5.1564  -5.0909
    -4.9519  -4.9120  -4.7277  -4.6205  -4.4766  -4.3154  -4.2473  -4.1879
    -4.1273  -4.0842  -3.8930  -3.8612  -3.7586  -3.6347  -3.5711  -3.5352
    -3.4861  -3.2538  -3.1449  -3.1104  -3.0805  -2.9010  -2.8573  -2.7780
    -2.7617  -2.7334  -2.6082  -2.4963  -2.4381  -2.2977  -2.2406  -2.1740
    -2.1452  -2.0758  -2.0060  -1.9009  -1.8605  -1.7379  -1.6584  -1.6278
    -1.5269  -1.4954  -1.4508  -1.3660  -1.2340  -1.2069  -1.1937  -1.1662
    -0.9610  -0.9339  -0.8435  -0.6894  -0.6679  -0.5510   0.4169   0.5484
     0.6440   0.7846   0.9329   1.0341   1.2123   1.2472   1.2858   1.3340
     1.5677   1.6467   1.6831   1.9718   2.0256   2.3168   2.4192   2.5265
     2.7624   2.8136   3.4877   3.5656

          k = 0.0000 1.9666 0.0000 ( 87163 PWs)   bands (ev):

  -103.5109-103.4772-103.4339-103.4229-103.0605-102.8919 -68.9768 -68.7734
   -68.7696 -68.7585 -64.0784 -64.0439 -64.0073 -64.0035 -63.9168 -63.8821
   -63.8316 -63.8102 -63.7754 -63.7471 -63.7073 -63.6926 -63.5620 -63.5272
   -63.3847 -63.3388 -63.3358 -63.2065 -35.4422 -35.4404 -35.3632 -35.2703
   -35.2601 -35.2532 -35.2493 -35.2461 -35.2433 -35.2131 -35.1967 -35.1869
   -11.8029 -11.6464 -11.6266 -11.5344 -11.4848 -11.4586 -11.2901 -11.2037
   -11.1920 -11.1665  -6.1002  -6.0791  -6.0130  -6.0032  -5.3448  -5.1762
    -5.0730  -5.0544  -4.8184  -4.7565  -4.4340  -4.3887  -4.2621  -4.0004
    -3.9117  -3.8929  -3.7696  -3.7251  -3.6907  -3.6672  -3.5552  -3.5196
    -3.4313  -3.4214  -3.2864  -3.2280  -3.1530  -3.0243  -2.9460  -2.9244
    -2.7424  -2.7116  -2.6395  -2.5498  -2.3871  -2.3135  -2.2703  -2.2281
    -2.2238  -2.1367  -2.1112  -1.9995  -1.9761  -1.8857  -1.8175  -1.7610
    -1.5762  -1.5047  -1.4618  -1.4339  -1.3500  -1.3280  -1.2747  -1.2462
    -1.1011  -0.9937  -0.9332  -0.8824  -0.7893  -0.7522   0.2655   0.3621
     0.7827   0.8915   0.9786   1.0883   1.1387   1.4970   1.5956   1.7144
     1.7581   1.7807   1.9166   1.9511   2.0665   2.2896   2.5914   2.7068
     2.9051   3.1209   3.1711   3.2363

          k = 0.0000-2.4583 0.0000 ( 87034 PWs)   bands (ev):

  -103.5108-103.4772-103.4337-103.4232-103.0605-102.8919 -68.9767 -68.7732
   -68.7694 -68.7584 -64.0785 -64.0440 -64.0072 -64.0037 -63.9147 -63.8846
   -63.8281 -63.8144 -63.7735 -63.7478 -63.7040 -63.6946 -63.5620 -63.5271
   -63.3847 -63.3386 -63.3358 -63.2063 -35.4477 -35.4410 -35.3622 -35.2771
   -35.2669 -35.2601 -35.2484 -35.2453 -35.2425 -35.2123 -35.1960 -35.1861
   -11.5989 -11.4912 -11.4388 -11.4252 -11.3977 -11.3792 -11.3079 -11.1393
   -11.1327 -11.1321  -6.3142  -6.3059  -6.2643  -6.2419  -5.5367  -5.3674
    -5.1051  -5.0313  -4.9382  -4.9186  -4.2124  -4.1669  -4.1009  -4.0724
    -3.9270  -3.8799  -3.6373  -3.6128  -3.5886  -3.5828  -3.5619  -3.5116
    -3.4103  -3.3968  -3.2628  -3.2514  -3.1663  -3.1320  -3.0932  -3.0222
    -2.6739  -2.6607  -2.5577  -2.5569  -2.3414  -2.3344  -2.3080  -2.2733
    -2.2576  -2.1938  -2.0564  -1.9862  -1.9800  -1.9542  -1.9264  -1.9129
    -1.6000  -1.4933  -1.4443  -1.4295  -1.4174  -1.3497  -1.2896  -1.2610
    -1.1465  -1.1207  -1.0389  -1.0304  -0.8114  -0.7730   0.2644   0.2662
     0.8590   0.8912   1.0192   1.0513   1.2139   1.2519   1.6474   1.6875
     1.9809   2.0588   2.0665   2.1244   2.1872   2.2610   2.5355   2.5366
     2.8565   2.8936   3.1796   3.2697

          k =-0.5000 0.0000 0.0000 ( 87516 PWs)   bands (ev):

  -103.5118-103.4763-103.4362-103.4207-103.0606-102.8919 -68.9783 -68.7749
   -68.7710 -68.7600 -64.0783 -64.0434 -64.0082 -64.0022 -63.9272 -63.8600
   -63.8441 -63.7926 -63.7839 -63.7427 -63.7289 -63.6857 -63.5621 -63.5272
   -63.3848 -63.3389 -63.3359 -63.2066 -35.4481 -35.3766 -35.3718 -35.2580
   -35.2542 -35.2516 -35.2207 -35.2046 -35.2041 -35.1942 -35.1938 -35.1873
   -12.9677 -12.8697 -12.3824 -12.2864 -12.1380 -12.0531 -11.8440 -11.7385
   -11.6572 -11.6380  -6.1957  -6.1195  -5.7947  -5.7833  -5.5045  -5.3945
    -5.1162  -4.9881  -4.6599  -4.5802  -3.9568  -3.9417  -3.8280  -3.7845
    -3.7519  -3.7386  -3.6126  -3.5357  -3.4289  -3.3541  -3.3199  -3.2719
    -2.8652  -2.7589  -2.7230  -2.7017  -2.6497  -2.5796  -2.3726  -2.3524
    -2.2593  -2.2025  -2.1043  -2.1015  -2.0466  -1.9662  -1.9109  -1.8962
    -1.8635  -1.7897  -1.7075  -1.5782  -1.4323  -1.3688  -1.3030  -1.2936
    -1.2387  -1.1950  -1.1759  -1.1398  -1.1146  -1.0588  -0.7919  -0.7852
    -0.7576  -0.7473  -0.5632  -0.4681  -0.1943  -0.0800  -0.0312   0.0033
     0.8103   0.8412   0.8935   0.9095   1.1304   1.2125   1.2366   1.2800
     1.5586   1.7200   2.0967   2.1403   2.2147   2.2709   3.1271   3.1692
     3.1736   3.2146   3.2739   3.3934

          k =-0.5000 0.4917 0.0000 ( 87468 PWs)   bands (ev):

  -103.5117-103.4764-103.4360-103.4209-103.0606-102.8919 -68.9781 -68.7747
   -68.7709 -68.7599 -64.0783 -64.0434 -64.0081 -64.0023 -63.9264 -63.8622
   -63.8433 -63.7906 -63.7866 -63.7430 -63.7266 -63.6862 -63.5620 -63.5272
   -63.3848 -63.3389 -63.3359 -63.2065 -35.4474 -35.3835 -35.3709 -35.2571
   -35.2534 -35.2508 -35.2199 -35.2116 -35.2033 -35.2011 -35.1943 -35.1931
   -12.8745 -12.7763 -12.3023 -12.2078 -12.0894 -12.0028 -11.7892 -11.6809
   -11.6132 -11.5976  -6.1101  -6.0353  -5.6974  -5.6860  -5.4186  -5.3007
    -5.0390  -4.9169  -4.6131  -4.5369  -4.0410  -4.0325  -3.9250  -3.8954
    -3.7421  -3.7030  -3.6528  -3.5485  -3.4958  -3.4679  -3.2483  -3.1667
    -3.0047  -2.8729  -2.8530  -2.8117  -2.7846  -2.7541  -2.4875  -2.4411
    -2.2803  -2.2615  -2.2200  -2.1180  -2.0920  -2.0339  -1.9607  -1.9417
    -1.8785  -1.8346  -1.7892  -1.6733  -1.6030  -1.5851  -1.5015  -1.4199
    -1.3845  -1.2910  -1.2100  -1.1479  -1.0153  -1.0030  -0.9148  -0.8891
    -0.7579  -0.7217  -0.6445  -0.5873  -0.2087  -0.0959   0.1050   0.1743
     0.6122   0.6737   0.9771   1.0297   1.0869   1.1302   1.2282   1.2712
     1.4842   1.6201   1.9168   1.9977   2.1042   2.2670   2.6454   2.7113
     2.7979   2.8501   3.4135   3.4458

          k =-0.5000 0.9833 0.0000 ( 87378 PWs)   bands (ev):

  -103.5114-103.4766-103.4354-103.4215-103.0606-102.8919 -68.9777 -68.7743
   -68.7705 -68.7595 -64.0783 -64.0435 -64.0079 -64.0025 -63.9241 -63.8682
   -63.8408 -63.7934 -63.7858 -63.7441 -63.7207 -63.6875 -63.5620 -63.5272
   -63.3848 -63.3389 -63.3358 -63.2066 -35.4457 -35.4013 -35.3685 -35.2547
   -35.2512 -35.2485 -35.2298 -35.2194 -35.2178 -35.2126 -35.2012 -35.1912
   -12.6081 -12.5094 -12.0792 -11.9949 -11.9523 -11.8612 -11.6437 -11.5320
   -11.4906 -11.4803  -5.8970  -5.8236  -5.4494  -5.4400  -5.1998  -5.0615
    -4.9211  -4.8674  -4.5151  -4.5100  -4.2556  -4.2214  -4.1853  -4.1500
    -3.8522  -3.7971  -3.7335  -3.6859  -3.6467  -3.5360  -3.4551  -3.3589
    -3.2648  -3.2112  -3.0715  -3.0314  -2.8943  -2.8165  -2.7300  -2.6645
    -2.5472  -2.4967  -2.4766  -2.4098  -2.2422  -2.2063  -2.1710  -2.0938
    -2.0088  -1.9762  -1.8875  -1.7701  -1.6784  -1.6423  -1.6223  -1.5133
    -1.4628  -1.3912  -1.3298  -1.2969  -1.1688  -1.1016  -1.0435  -1.0005
    -0.9366  -0.8765  -0.6022  -0.5514  -0.4200  -0.3362   0.3734   0.4315
     0.6734   0.7472   0.9300   0.9516   1.0337   1.1437   1.2072   1.2529
     1.3534   1.4605   1.7733   1.8269   2.0891   2.1939   2.3487   2.4433
     2.4979   2.5921   3.7463   3.7713

          k =-0.5000 1.4750 0.0000 ( 87280 PWs)   bands (ev):

  -103.5111-103.4769-103.4346-103.4222-103.0606-102.8919 -68.9772 -68.7738
   -68.7700 -68.7589 -64.0784 -64.0437 -64.0076 -64.0030 -63.9207 -63.8756
   -63.8369 -63.8020 -63.7800 -63.7455 -63.7136 -63.6897 -63.5620 -63.5272
   -63.3847 -63.3389 -63.3358 -63.2066 -35.4435 -35.4232 -35.3656 -35.2532
   -35.2508 -35.2486 -35.2458 -35.2417 -35.2349 -35.2153 -35.1988 -35.1888
   -12.2136 -12.1140 -11.7799 -11.7747 -11.7138 -11.6418 -11.4616 -11.3691
   -11.3233 -11.2960  -5.7895  -5.7183  -5.4131  -5.3740  -5.2081  -5.1739
    -5.0297  -4.9047  -4.6641  -4.6043  -4.5019  -4.3523  -4.1816  -4.0894
    -4.0842  -4.0082  -3.9655  -3.9394  -3.7382  -3.6893  -3.6161  -3.5505
    -3.2812  -3.2520  -3.1964  -3.1526  -3.0746  -2.9434  -2.9297  -2.8557
    -2.6951  -2.6429  -2.6175  -2.5966  -2.3764  -2.3150  -2.2350  -2.1643
    -2.1281  -2.0858  -2.0461  -1.9704  -1.7519  -1.6919  -1.6622  -1.6364
    -1.5195  -1.4882  -1.4376  -1.4015  -1.2856  -1.2292  -1.1838  -1.1283
    -0.9910  -0.9276  -0.7880  -0.7483  -0.6376  -0.5586   0.4265   0.4731
     0.8429   0.8842   0.9538   1.0274   1.1842   1.2194   1.2347   1.2833
     1.5041   1.6152   1.7546   1.7913   2.1517   2.2921   2.5101   2.5491
     2.6659   2.7096   3.5797   3.6222

          k =-0.5000 1.9666 0.0000 ( 87146 PWs)   bands (ev):

  -103.5109-103.4772-103.4339-103.4229-103.0605-102.8919 -68.9768 -68.7734
   -68.7696 -68.7585 -64.0784 -64.0439 -64.0073 -64.0035 -63.9167 -63.8820
   -63.8316 -63.8102 -63.7753 -63.7471 -63.7073 -63.6926 -63.5620 -63.5271
   -63.3847 -63.3388 -63.3358 -63.2065 -35.4422 -35.4404 -35.3632 -35.2703
   -35.2601 -35.2532 -35.2493 -35.2461 -35.2433 -35.2131 -35.1967 -35.1869
   -11.7923 -11.6879 -11.6015 -11.5393 -11.4908 -11.4208 -11.3148 -11.2128
   -11.1878 -11.1580  -6.1523  -6.1226  -5.9416  -5.9333  -5.3776  -5.2240
    -5.0944  -5.0369  -4.8031  -4.7354  -4.4533  -4.3954  -4.2028  -4.0187
    -3.9787  -3.8829  -3.8053  -3.7737  -3.6532  -3.6353  -3.5479  -3.5064
    -3.4066  -3.3546  -3.2798  -3.1736  -3.1358  -3.0663  -2.9762  -2.9333
    -2.7603  -2.7146  -2.5773  -2.5699  -2.4481  -2.3839  -2.2697  -2.2270
    -2.2040  -2.1606  -2.1085  -2.0785  -1.8546  -1.8235  -1.7938  -1.7913
    -1.5969  -1.5090  -1.4689  -1.4231  -1.4067  -1.3428  -1.2242  -1.1668
    -1.1411  -1.0997  -0.9124  -0.8391  -0.7946  -0.7704   0.3010   0.3285
     0.8740   0.9378   1.0426   1.0570   1.2074   1.3012   1.6325   1.6703
     1.7482   1.7778   1.9074   1.9731   2.0551   2.1920   2.7369   2.7960
     2.8034   2.8741   3.2246   3.2617

          k =-0.5000-2.4583 0.0000 ( 87092 PWs)   bands (ev):

  -103.5108-103.4772-103.4337-103.4232-103.0605-102.8919 -68.9767 -68.7732
   -68.7694 -68.7584 -64.0785 -64.0441 -64.0073 -64.0037 -63.9147 -63.8847
   -63.8281 -63.8145 -63.7736 -63.7479 -63.7041 -63.6947 -63.5620 -63.5272
   -63.3847 -63.3386 -63.3359 -63.2063 -35.4477 -35.4410 -35.3622 -35.2771
   -35.2669 -35.2601 -35.2484 -35.2453 -35.2425 -35.2123 -35.1960 -35.1861
   -11.5989 -11.4910 -11.4388 -11.4280 -11.3972 -11.3718 -11.3140 -11.1497
   -11.1313 -11.1221  -6.3861  -6.3639  -6.1717  -6.1697  -5.5572  -5.3729
    -5.1224  -5.0131  -4.9450  -4.9354  -4.2067  -4.1866  -4.1450  -4.0095
    -3.8806  -3.8556  -3.7323  -3.6383  -3.6304  -3.5801  -3.5261  -3.5056
    -3.4626  -3.4140  -3.2999  -3.2911  -3.0275  -3.0033  -2.9802  -2.9489
    -2.7688  -2.7527  -2.5601  -2.5502  -2.3894  -2.3860  -2.3350  -2.2623
    -2.2518  -2.2449  -2.0214  -1.9879  -1.9838  -1.9427  -1.8908  -1.8465
    -1.6256  -1.5007  -1.4754  -1.4548  -1.4206  -1.3297  -1.2631  -1.2441
    -1.2060  -1.1315  -1.0379  -1.0122  -0.8073  -0.7681   0.2695   0.2730
     0.9066   0.9870   1.0221   1.0370   1.1426   1.1884   1.6964   1.7536
     1.8703   1.9653   2.0871   2.1436   2.1888   2.2610   2.6267   2.6297
     2.7155   2.7332   3.3743   3.4644

     the Fermi energy is    -0.0518 ev

!    total energy              =   -9109.86454824 Ry
     total all-electron energy =     -9109.864548 Ry
     estimated scf accuracy    <          7.1E-09 Ry
     smearing contrib. (-TS)   =      -0.00010210 Ry
     internal energy E=F+TS    =   -9109.86444614 Ry

     The total energy is F=E-TS. E is the sum of the following terms:
     one-electron contribution =  -16160.61649286 Ry
     hartree contribution      =    7938.19147128 Ry
     xc contribution           =    -364.76652453 Ry
     ewald contribution        =    5745.01136525 Ry
     one-center paw contrib.   =   -6267.68426528 Ry

     convergence has been achieved in  16 iterations

     negative rho (up, down):  6.525E-02 0.000E+00

     Forces acting on atoms (cartesian axes, Ry/au):

     atom    1 type  1   force =     0.03086494    0.00000000   -0.01073637
     atom    2 type  1   force =    -0.00116336    0.00000000   -0.00008472
     atom    3 type  1   force =    -0.00983159    0.00000000    0.00047171
     atom    4 type  1   force =    -0.00221278    0.00000000    0.00108856
     atom    5 type  2   force =     0.00648962    0.00000000    0.00033836
     atom    6 type  2   force =    -0.00173436    0.00000000   -0.00071470
     atom    7 type  2   force =    -0.00079630    0.00000000    0.00002594
     atom    8 type  2   force =     0.00767163    0.00000000   -0.00212610
     atom    9 type  2   force =     0.00087083    0.00000000    0.00001563
     atom   10 type  2   force =    -0.02100533    0.00000000    0.00622808
     atom   11 type  3   force =     0.00838554    0.00000000    0.00001527
     atom   12 type  3   force =     0.00011049    0.00000000    0.00014022
     atom   13 type  3   force =     0.00074990    0.00000000    0.00005059
     atom   14 type  3   force =    -0.00751706    0.00000000    0.00083491
     atom   15 type  3   force =     0.00067549    0.00000000   -0.00002329
     atom   16 type  3   force =    -0.00008923    0.00000000   -0.00081671
     atom   17 type  3   force =    -0.00006888    0.00000000    0.00010479
     atom   18 type  3   force =     0.02287587    0.00000000   -0.01569454
     atom   19 type  3   force =    -0.03459641    0.00000000    0.02057970
     atom   20 type  3   force =     0.00032097    0.00000000    0.00030268

     Total force =     0.065439     Total SCF correction =     0.000486


     Computing stress (Cartesian axis) and pressure


     negative rho (up, down):  6.525E-02 0.000E+00
          total   stress  (Ry/bohr**3)                   (kbar)     P=       -5.31
  -0.00004600   0.00000000   0.00001090           -6.77        0.00        1.60
   0.00000000  -0.00001317   0.00000000            0.00       -1.94        0.00
   0.00001090   0.00000000  -0.00004918            1.60        0.00       -7.23

     Energy error            =      5.1E-03 Ry
     Gradient error          =      3.5E-02 Ry/Bohr

     number of scf cycles    =   2
     number of bfgs steps    =   1

     energy             old  =   -9109.8594409302 Ry
     energy             new  =   -9109.8645482384 Ry

     CASE: energy            _new < energy            _old


     WARNING: bfgs curvature condition failed, Theta= 0.903
     new trust radius        =       0.0496732638 bohr
     new conv_thr            =       0.0000000035 Ry


ATOMIC_POSITIONS (angstrom)
Ta              15.4318352900        0.9149235643       12.4319897229
Ta               6.5697551458        2.7447696811       12.5916418474
Ta               2.2525014738        0.9149235643       12.4444517347
Ta              11.0805270924        2.7447696811       12.5939100099
Ni              12.8719641723        0.9149235643       11.7620788665
Ni               4.0429719273        2.7447696811       13.2731441442
Ni               4.7922186875        0.9149235643       11.7613301545
Ni              13.6216595146        2.7447696811       13.2719082048
Ni               8.8297348847        0.9149235643       12.3682638859
Ni              -0.0174012804        2.7447696811       12.6737441679
Te              14.2231845785        2.7447696811       10.5344757571
Te               5.3929890049        0.9149235643       14.5008325650
Te              10.5956695392        0.9149235643       10.5190989775
Te               1.7660472636        2.7447696811       14.5183630001
Te               3.4453761144        2.7447696811       10.5345620069
Te              12.2631361598        0.9149235643       14.5004411120
Te               7.0614337456        0.9149235643       10.5192986856
Te              15.9096815773        2.7447696811       14.4966288533
Te              -0.0345224789        0.9149235643       10.8637803796
Te               8.8297999507        2.7447696811       14.1983069240



     Writing config-only to output data dir /ddn/data/physics/eamoujaes/2D-Ta2Ni3Te5/ELASTIC/OUT/ta2ni3te5.save/ :
     XML data file
     NEW-OLD atomic charge density approx. for the potential

     negative rho (up, down):  6.528E-02 0.000E+00

     total cpu time spent up to now is     1938.8 secs

     Self-consistent Calculation

     iteration #  1     ecut=    60.00 Ry     beta= 0.20
     Davidson diagonalization with overlap
     ethr =  1.00E-06,  avg # of iterations =  8.2

     negative rho (up, down):  6.526E-02 0.000E+00

     total cpu time spent up to now is     1978.9 secs

     total energy              =   -9109.86787929 Ry
     estimated scf accuracy    <       0.00453054 Ry

     iteration #  2     ecut=    60.00 Ry     beta= 0.20
     Davidson diagonalization with overlap
     ethr =  2.06E-06,  avg # of iterations = 11.5

     negative rho (up, down):  6.526E-02 0.000E+00

     total cpu time spent up to now is     2017.8 secs

     total energy              =   -9109.86651206 Ry
     estimated scf accuracy    <       0.07810079 Ry

     iteration #  3     ecut=    60.00 Ry     beta= 0.20
     Davidson diagonalization with overlap
     ethr =  2.06E-06,  avg # of iterations =  8.8

     negative rho (up, down):  6.526E-02 0.000E+00

     total cpu time spent up to now is     2055.7 secs

     total energy              =   -9109.86933595 Ry
     estimated scf accuracy    <       0.00177488 Ry

     iteration #  4     ecut=    60.00 Ry     beta= 0.20
     Davidson diagonalization with overlap
     ethr =  8.07E-07,  avg # of iterations =  2.0

     negative rho (up, down):  6.525E-02 0.000E+00

     total cpu time spent up to now is     2093.2 secs

     total energy              =   -9109.86942970 Ry
     estimated scf accuracy    <       0.00044101 Ry

     iteration #  5     ecut=    60.00 Ry     beta= 0.20
     Davidson diagonalization with overlap
     ethr =  2.00E-07,  avg # of iterations =  2.0

     negative rho (up, down):  6.525E-02 0.000E+00

     total cpu time spent up to now is     2130.5 secs

     total energy              =   -9109.86945252 Ry
     estimated scf accuracy    <       0.00024911 Ry

     iteration #  6     ecut=    60.00 Ry     beta= 0.20
     Davidson diagonalization with overlap
     ethr =  1.13E-07,  avg # of iterations =  1.2

     negative rho (up, down):  6.524E-02 0.000E+00

     total cpu time spent up to now is     2167.6 secs

     total energy              =   -9109.86945435 Ry
     estimated scf accuracy    <       0.00013316 Ry

     iteration #  7     ecut=    60.00 Ry     beta= 0.20
     Davidson diagonalization with overlap
     ethr =  6.05E-08,  avg # of iterations =  1.4

     negative rho (up, down):  6.523E-02 0.000E+00

     total cpu time spent up to now is     2204.8 secs

     total energy              =   -9109.86946073 Ry
     estimated scf accuracy    <       0.00005256 Ry

     iteration #  8     ecut=    60.00 Ry     beta= 0.20
     Davidson diagonalization with overlap
     ethr =  2.39E-08,  avg # of iterations =  1.9

     negative rho (up, down):  6.522E-02 0.000E+00

     total cpu time spent up to now is     2242.1 secs

     total energy              =   -9109.86946364 Ry
     estimated scf accuracy    <       0.00002300 Ry

     iteration #  9     ecut=    60.00 Ry     beta= 0.20
     Davidson diagonalization with overlap
     ethr =  1.05E-08,  avg # of iterations =  1.9

     negative rho (up, down):  6.522E-02 0.000E+00

     total cpu time spent up to now is     2279.5 secs

     total energy              =   -9109.86946557 Ry
     estimated scf accuracy    <       0.00000666 Ry

     iteration # 10     ecut=    60.00 Ry     beta= 0.20
     Davidson diagonalization with overlap
     ethr =  3.03E-09,  avg # of iterations =  2.1

     negative rho (up, down):  6.522E-02 0.000E+00

     total cpu time spent up to now is     2317.0 secs

     total energy              =   -9109.86946661 Ry
     estimated scf accuracy    <       0.00000218 Ry

     iteration # 11     ecut=    60.00 Ry     beta= 0.20
     Davidson diagonalization with overlap
     ethr =  9.90E-10,  avg # of iterations =  2.3

     negative rho (up, down):  6.521E-02 0.000E+00

     total cpu time spent up to now is     2354.2 secs

     total energy              =   -9109.86946701 Ry
     estimated scf accuracy    <       0.00000064 Ry

     iteration # 12     ecut=    60.00 Ry     beta= 0.20
     Davidson diagonalization with overlap
     ethr =  2.93E-10,  avg # of iterations =  2.3

     negative rho (up, down):  6.521E-02 0.000E+00

     total cpu time spent up to now is     2391.5 secs

     total energy              =   -9109.86946727 Ry
     estimated scf accuracy    <       0.00000079 Ry

     iteration # 13     ecut=    60.00 Ry     beta= 0.20
     Davidson diagonalization with overlap
     ethr =  2.93E-10,  avg # of iterations =  2.0

     negative rho (up, down):  6.521E-02 0.000E+00

     total cpu time spent up to now is     2428.6 secs

     total energy              =   -9109.86946742 Ry
     estimated scf accuracy    <       0.00000019 Ry

     iteration # 14     ecut=    60.00 Ry     beta= 0.20
     Davidson diagonalization with overlap
     ethr =  8.63E-11,  avg # of iterations =  2.7

     negative rho (up, down):  6.521E-02 0.000E+00

     total cpu time spent up to now is     2466.4 secs

     total energy              =   -9109.86946742 Ry
     estimated scf accuracy    <       0.00000012 Ry

     iteration # 15     ecut=    60.00 Ry     beta= 0.20
     Davidson diagonalization with overlap
     ethr =  5.31E-11,  avg # of iterations =  2.0

     negative rho (up, down):  6.521E-02 0.000E+00

     total cpu time spent up to now is     2504.0 secs

     total energy              =   -9109.86946743 Ry
     estimated scf accuracy    <       0.00000003 Ry

     iteration # 16     ecut=    60.00 Ry     beta= 0.20
     Davidson diagonalization with overlap
     ethr =  1.22E-11,  avg # of iterations =  4.5

     negative rho (up, down):  6.521E-02 0.000E+00

     total cpu time spent up to now is     2542.0 secs

     total energy              =   -9109.86946743 Ry
     estimated scf accuracy    <       0.00000002 Ry

     iteration # 17     ecut=    60.00 Ry     beta= 0.20
     Davidson diagonalization with overlap
     ethr =  7.42E-12,  avg # of iterations =  1.7

     negative rho (up, down):  6.521E-02 0.000E+00

     total cpu time spent up to now is     2579.2 secs

     total energy              =   -9109.86946744 Ry
     estimated scf accuracy    <       0.00000001 Ry

     iteration # 18     ecut=    60.00 Ry     beta= 0.20
     Davidson diagonalization with overlap
     ethr =  5.35E-12,  avg # of iterations =  1.1

     negative rho (up, down):  6.521E-02 0.000E+00

     total cpu time spent up to now is     2616.8 secs

     total energy              =   -9109.86946744 Ry
     estimated scf accuracy    <          3.8E-09 Ry

     iteration # 19     ecut=    60.00 Ry     beta= 0.20
     Davidson diagonalization with overlap
     ethr =  1.73E-12,  avg # of iterations =  2.3

     negative rho (up, down):  6.521E-02 0.000E+00

     total cpu time spent up to now is     2654.2 secs

     total energy              =   -9109.86946744 Ry
     estimated scf accuracy    <          3.8E-09 Ry

     iteration # 20     ecut=    60.00 Ry     beta= 0.20
     Davidson diagonalization with overlap
     ethr =  1.71E-12,  avg # of iterations =  1.0

     negative rho (up, down):  6.521E-02 0.000E+00

     total cpu time spent up to now is     2690.9 secs

     End of self-consistent calculation

          k = 0.0000 0.0000 0.0000 ( 87479 PWs)   bands (ev):

  -103.4749-103.4490-103.4393-103.4246-103.0616-102.9185 -68.9592 -68.7944
   -68.7693 -68.7650 -64.0434 -64.0158 -64.0104 -64.0053 -63.8912 -63.8487
   -63.8295 -63.7885 -63.7585 -63.7319 -63.7128 -63.6889 -63.5633 -63.5283
   -63.4104 -63.3660 -63.3396 -63.2298 -35.4260 -35.3605 -35.3573 -35.2762
   -35.2565 -35.2520 -35.2219 -35.2205 -35.2168 -35.1991 -35.1923 -35.1920
   -13.0015 -12.7662 -12.5512 -12.1813 -12.1558 -11.9013 -11.8813 -11.8561
   -11.7268 -11.5718  -6.2310  -6.0318  -5.8014  -5.7066  -5.5242  -5.4527
    -5.3627  -4.7901  -4.6977  -4.2571  -4.2326  -3.8913  -3.8757  -3.8175
    -3.7557  -3.7346  -3.7323  -3.5812  -3.3223  -3.3201  -3.2624  -3.0855
    -2.8523  -2.7469  -2.7462  -2.6837  -2.6746  -2.5096  -2.3814  -2.3672
    -2.3270  -2.2459  -2.1677  -2.0931  -2.0139  -1.9396  -1.9208  -1.9040
    -1.8835  -1.7410  -1.7004  -1.5694  -1.4188  -1.3743  -1.3577  -1.3103
    -1.2568  -1.2022  -1.1709  -1.1398  -1.0486  -1.0276  -0.9155  -0.8001
    -0.7506  -0.6697  -0.5543  -0.4827  -0.2616  -0.0729  -0.0269   0.0733
     0.6627   0.6990   1.0084   1.0120   1.1470   1.1933   1.3452   1.4069
     1.5265   1.7515   1.9022   2.0930   2.2531   2.4335   2.9716   3.1953
     3.2096   3.2290   3.3157   3.3280

          k = 0.0000 0.4917 0.0000 ( 87423 PWs)   bands (ev):

  -103.4748-103.4491-103.4391-103.4248-103.0616-102.9185 -68.9591 -68.7943
   -68.7692 -68.7648 -64.0434 -64.0158 -64.0103 -64.0054 -63.8904 -63.8479
   -63.8319 -63.7912 -63.7563 -63.7294 -63.7131 -63.6892 -63.5632 -63.5282
   -63.4103 -63.3660 -63.3397 -63.2299 -35.4253 -35.3673 -35.3564 -35.2753
   -35.2556 -35.2512 -35.2275 -35.2212 -35.2160 -35.1993 -35.1990 -35.1983
   -12.9073 -12.6743 -12.4672 -12.1200 -12.0977 -11.8464 -11.8282 -11.8051
   -11.6715 -11.5349  -6.1459  -5.9497  -5.7051  -5.6061  -5.4491  -5.3505
    -5.2832  -4.7110  -4.6360  -4.2321  -4.2123  -4.0105  -3.9206  -3.9191
    -3.8788  -3.8293  -3.7128  -3.5769  -3.3509  -3.3267  -3.2596  -3.0486
    -2.9909  -2.8587  -2.8297  -2.8182  -2.7859  -2.7328  -2.5986  -2.3480
    -2.2960  -2.2790  -2.2410  -2.1942  -2.0796  -2.0139  -1.9603  -1.9216
    -1.8944  -1.8113  -1.7278  -1.6736  -1.6391  -1.6218  -1.4671  -1.3938
    -1.3881  -1.3441  -1.2332  -1.0986  -1.0578  -1.0309  -0.9978  -0.8062
    -0.7353  -0.6929  -0.6497  -0.5656  -0.2269  -0.1211   0.0193   0.2536
     0.5487   0.6930   0.8614   1.0158   1.1101   1.1386   1.2669   1.4282
     1.5279   1.6969   1.8249   1.9694   2.0956   2.4228   2.5605   2.7292
     2.7667   2.9012   3.2800   3.3879

          k = 0.0000 0.9833 0.0000 ( 87379 PWs)   bands (ev):

  -103.4744-103.4494-103.4385-103.4254-103.0616-102.9185 -68.9587 -68.7939
   -68.7687 -68.7644 -64.0435 -64.0160 -64.0101 -64.0059 -63.8879 -63.8456
   -63.8380 -63.7980 -63.7513 -63.7236 -63.7144 -63.6906 -63.5632 -63.5282
   -63.4103 -63.3660 -63.3398 -63.2300 -35.4235 -35.3851 -35.3540 -35.2730
   -35.2533 -35.2489 -35.2456 -35.2194 -35.2175 -35.2169 -35.2139 -35.1964
   -12.6375 -12.4128 -12.2307 -11.9769 -11.9173 -11.7225 -11.6706 -11.6445
   -11.5214 -11.4358  -5.9370  -5.7421  -5.4608  -5.3865  -5.2463  -5.0941
    -5.0699  -4.6882  -4.5532  -4.3615  -4.2469  -4.2025  -4.1233  -4.1071
    -4.0302  -3.9969  -3.8379  -3.6710  -3.6175  -3.4980  -3.3625  -3.3190
    -3.2720  -3.1349  -3.0908  -2.9483  -2.8928  -2.8481  -2.7477  -2.6246
    -2.5495  -2.4800  -2.4531  -2.4166  -2.2491  -2.2232  -2.1695  -2.1106
    -2.0626  -1.9202  -1.8469  -1.7634  -1.7466  -1.6467  -1.5849  -1.5656
    -1.4664  -1.4242  -1.3892  -1.1798  -1.1249  -1.0471  -1.0201  -0.9947
    -0.9333  -0.8797  -0.7085  -0.5710  -0.4341  -0.3656   0.3229   0.5580
     0.5716   0.8092   0.8638   0.9246   1.0017   1.0891   1.1140   1.3261
     1.5703   1.5937   1.6618   1.9172   2.1024   2.1663   2.3320   2.3773
     2.5302   2.6550   3.6933   3.7366

          k = 0.0000 1.4750 0.0000 ( 87309 PWs)   bands (ev):

  -103.4740-103.4498-103.4377-103.4262-103.0616-102.9185 -68.9582 -68.7933
   -68.7682 -68.7639 -64.0435 -64.0162 -64.0097 -64.0064 -63.8837 -63.8461
   -63.8415 -63.8066 -63.7452 -63.7166 -63.7165 -63.6930 -63.5632 -63.5282
   -63.4103 -63.3659 -63.3398 -63.2300 -35.4213 -35.4070 -35.3510 -35.2706
   -35.2674 -35.2506 -35.2463 -35.2400 -35.2394 -35.2166 -35.2114 -35.1940
   -12.2359 -12.0303 -11.8968 -11.7798 -11.6844 -11.5839 -11.4404 -11.4121
   -11.3348 -11.3078  -5.8252  -5.6410  -5.4701  -5.4290  -5.1502  -5.0927
    -4.9484  -4.9085  -4.7356  -4.6162  -4.4717  -4.3215  -4.2542  -4.1909
    -4.1226  -4.0759  -3.8894  -3.8647  -3.7649  -3.6344  -3.5674  -3.5392
    -3.4714  -3.2472  -3.1455  -3.1108  -3.0822  -2.9064  -2.8575  -2.7724
    -2.7595  -2.7234  -2.6109  -2.4949  -2.4336  -2.2883  -2.2384  -2.1694
    -2.1455  -2.0714  -2.0074  -1.8972  -1.8582  -1.7265  -1.6518  -1.6135
    -1.5155  -1.4933  -1.4578  -1.3751  -1.2245  -1.2147  -1.1969  -1.1712
    -0.9530  -0.9310  -0.8501  -0.6854  -0.6721  -0.5626   0.4170   0.5527
     0.6341   0.7896   0.9397   1.0345   1.2133   1.2538   1.2920   1.3298
     1.5718   1.6459   1.6827   1.9818   2.0292   2.3174   2.4217   2.5259
     2.7613   2.8132   3.4996   3.5656

          k = 0.0000 1.9666 0.0000 ( 87163 PWs)   bands (ev):

  -103.4737-103.4501-103.4369-103.4270-103.0616-102.9185 -68.9578 -68.7929
   -68.7678 -68.7635 -64.0436 -64.0164 -64.0093 -64.0071 -63.8785 -63.8539
   -63.8362 -63.8148 -63.7398 -63.7187 -63.7101 -63.6960 -63.5632 -63.5281
   -63.4103 -63.3659 -63.3397 -63.2299 -35.4250 -35.4193 -35.3487 -35.2860
   -35.2677 -35.2584 -35.2577 -35.2481 -35.2438 -35.2146 -35.2093 -35.1920
   -11.7990 -11.6365 -11.6276 -11.5251 -11.4833 -11.4683 -11.2899 -11.2076
   -11.1999 -11.1868  -6.0904  -6.0696  -6.0112  -5.9981  -5.3439  -5.1986
    -5.0728  -5.0505  -4.8183  -4.7534  -4.4247  -4.3852  -4.2595  -3.9984
    -3.9107  -3.8858  -3.7729  -3.7324  -3.6928  -3.6656  -3.5441  -3.5172
[...]
     1.5526   1.6023   1.6602   1.9391   2.0990   2.2440   2.3184   2.3705
     2.5395   2.6673   3.7076   3.8042

          k = 0.0000 1.4750 0.0000 ( 87309 PWs)   bands (ev):

  -103.4179-103.4034-103.4014-103.3956-103.0365-103.0291 -68.8258 -68.8248
   -68.8243 -68.8237 -63.9957 -63.9809 -63.9805 -63.9757 -63.8229 -63.8113
   -63.7882 -63.7789 -63.6897 -63.6774 -63.6627 -63.6548 -63.5409 -63.5348
   -63.5050 -63.4976 -63.3111 -63.3027 -35.2997 -35.2989 -35.2985 -35.2975
   -35.2952 -35.2945 -35.2943 -35.2931 -35.2520 -35.2501 -35.2493 -35.2472
   -12.2325 -12.0139 -11.9525 -11.7623 -11.6701 -11.6220 -11.4688 -11.4241
   -11.3799 -11.3191  -5.8179  -5.6254  -5.4711  -5.4306  -5.1442  -5.0970
    -4.9435  -4.9126  -4.7806  -4.6081  -4.4499  -4.3961  -4.2767  -4.2068
    -4.1103  -4.0585  -3.9072  -3.8770  -3.7860  -3.6024  -3.5788  -3.5604
    -3.4299  -3.2064  -3.1557  -3.1420  -3.0581  -2.9657  -2.8752  -2.7910
    -2.7192  -2.7061  -2.6039  -2.4944  -2.4327  -2.2946  -2.2354  -2.1705
    -2.1317  -2.0674  -2.0349  -1.8910  -1.8537  -1.6861  -1.6273  -1.5822
    -1.4723  -1.4657  -1.4589  -1.4521  -1.2672  -1.2082  -1.1896  -1.1546
    -0.9372  -0.9083  -0.8778  -0.6738  -0.6735  -0.5740   0.4180   0.5748
     0.6112   0.8334   0.9779   1.0475   1.2010   1.2595   1.3153   1.3206
     1.6064   1.6305   1.6739   2.0146   2.0782   2.3058   2.4239   2.5286
     2.7921   2.8094   3.5549   3.5706

          k = 0.0000 1.9666 0.0000 ( 87163 PWs)   bands (ev):

  -103.4174-103.4022-103.4019-103.3967-103.0365-103.0291 -68.8254 -68.8244
   -68.8239 -68.8233 -63.9957 -63.9811 -63.9803 -63.9762 -63.8172 -63.8049
   -63.7965 -63.7879 -63.6839 -63.6704 -63.6652 -63.6585 -63.5409 -63.5349
   -63.5049 -63.4975 -63.3110 -63.3025 -35.3136 -35.3129 -35.3127 -35.3114
   -35.2970 -35.2963 -35.2958 -35.2948 -35.2495 -35.2482 -35.2471 -35.2457
   -11.7851 -11.6591 -11.6215 -11.5228 -11.5213 -11.4770 -11.2962 -11.2782
   -11.2093 -11.1967  -6.0751  -6.0606  -6.0128  -5.9977  -5.3371  -5.2907
    -5.0648  -5.0402  -4.8342  -4.7485  -4.4034  -4.3671  -4.2658  -3.9885
    -3.9720  -3.8862  -3.7949  -3.7647  -3.6954  -3.6543  -3.5298  -3.4936
    -3.4071  -3.4041  -3.3056  -3.2913  -3.1441  -3.0678  -2.9813  -2.9525
    -2.6987  -2.6947  -2.6341  -2.5299  -2.3719  -2.3062  -2.2309  -2.2212
    -2.2141  -2.1649  -2.1498  -1.9723  -1.9333  -1.8685  -1.7601  -1.7272
    -1.5321  -1.5253  -1.4694  -1.4352  -1.4312  -1.3032  -1.3002  -1.2092
    -1.0611  -1.0018  -0.9526  -0.8500  -0.7852  -0.7806   0.2824   0.3858
     0.7527   0.9605   1.0052   1.1201   1.1456   1.5463   1.5476   1.7221
     1.7613   1.7688   1.9246   1.9848   2.0659   2.2947   2.5964   2.7259
     2.9435   3.1771   3.1900   3.2239

          k = 0.0000-2.4583 0.0000 ( 87034 PWs)   bands (ev):

  -103.4172-103.4021-103.4016-103.3974-103.0365-103.0291 -68.8253 -68.8242
   -68.8237 -68.8232 -63.9957 -63.9812 -63.9802 -63.9763 -63.8133 -63.8010
   -63.7988 -63.7946 -63.6813 -63.6667 -63.6656 -63.6622 -63.5409 -63.5348
   -63.5049 -63.4975 -63.3107 -63.3023 -35.3204 -35.3198 -35.3195 -35.3183
   -35.2962 -35.2954 -35.2950 -35.2940 -35.2484 -35.2476 -35.2462 -35.2452
   -11.5436 -11.5349 -11.4225 -11.4209 -11.4154 -11.4142 -11.2892 -11.2876
   -11.1402 -11.1370  -6.2795  -6.2775  -6.2627  -6.2619  -5.5139  -5.5114
    -5.0672  -5.0669  -4.9132  -4.9088  -4.1676  -4.1626  -4.0764  -4.0747
    -3.9114  -3.9104  -3.6088  -3.6075  -3.5974  -3.5931  -3.5204  -3.5155
    -3.4955  -3.4940  -3.2576  -3.2557  -3.1686  -3.1673  -3.0783  -3.0776
    -2.6405  -2.6394  -2.5618  -2.5613  -2.2880  -2.2876  -2.2668  -2.2653
    -2.2542  -2.2505  -2.0138  -2.0006  -1.9650  -1.9593  -1.8946  -1.8895
    -1.5343  -1.5308  -1.4433  -1.4383  -1.3713  -1.3675  -1.2875  -1.2862
    -1.1674  -1.1664  -1.0035  -1.0009  -0.7880  -0.7838   0.2907   0.2954
     0.8666   0.8683   1.0747   1.0770   1.2662   1.2695   1.6385   1.6402
     2.0467   2.0471   2.1044   2.1093   2.1948   2.1960   2.5412   2.5453
     2.8990   2.9024   3.2810   3.2811

          k =-0.5000 0.0000 0.0000 ( 87516 PWs)   bands (ev):

  -103.4191-103.4055-103.4003-103.3935-103.0365-103.0291 -68.8269 -68.8259
   -68.8253 -68.8248 -63.9959 -63.9811 -63.9805 -63.9750 -63.8305 -63.8193
   -63.7710 -63.7615 -63.7034 -63.6917 -63.6588 -63.6501 -63.5411 -63.5350
   -63.5049 -63.4975 -63.3110 -63.3026 -35.3053 -35.3046 -35.3041 -35.3032
   -35.2577 -35.2571 -35.2529 -35.2521 -35.2480 -35.2474 -35.2472 -35.2459
   -12.9233 -12.9168 -12.3547 -12.3519 -12.0925 -12.0858 -11.8351 -11.8313
   -11.6668 -11.6639  -6.1303  -6.1236  -5.8169  -5.8109  -5.4593  -5.4524
    -5.1050  -5.0996  -4.6153  -4.6109  -3.9314  -3.9239  -3.7617  -3.7520
    -3.7178  -3.7020  -3.5930  -3.5883  -3.3691  -3.3581  -3.3011  -3.2902
    -2.8105  -2.8020  -2.7407  -2.7345  -2.5624  -2.5518  -2.3257  -2.3163
    -2.2619  -2.2607  -2.0517  -2.0471  -2.0460  -2.0446  -1.9574  -1.9538
    -1.8262  -1.8196  -1.7020  -1.6979  -1.3695  -1.3636  -1.2535  -1.2481
    -1.2399  -1.2313  -1.1883  -1.1804  -1.0646  -1.0627  -0.7903  -0.7868
    -0.7532  -0.7495  -0.5155  -0.5102  -0.1451  -0.1408  -0.0579  -0.0572
     0.8521   0.8528   0.8557   0.8564   1.1547   1.1593   1.2735   1.2756
     1.6322   1.6370   2.1960   2.1989   2.2368   2.2419   3.1498   3.1507
     3.2070   3.2104   3.4263   3.4301

          k =-0.5000 0.4917 0.0000 ( 87468 PWs)   bands (ev):

  -103.4189-103.4052-103.4004-103.3937-103.0365-103.0291 -68.8268 -68.8257
   -68.8252 -68.8247 -63.9958 -63.9810 -63.9805 -63.9750 -63.8296 -63.8184
   -63.7734 -63.7639 -63.7014 -63.6897 -63.6592 -63.6506 -63.5410 -63.5349
   -63.5049 -63.4976 -63.3110 -63.3026 -35.3045 -35.3037 -35.3032 -35.3023
   -35.2569 -35.2563 -35.2549 -35.2543 -35.2541 -35.2529 -35.2522 -35.2514
   -12.8301 -12.8237 -12.2742 -12.2714 -12.0451 -12.0385 -11.7786 -11.7746
   -11.6246 -11.6218  -6.0460  -6.0392  -5.7187  -5.7127  -5.3721  -5.3651
    -5.0296  -5.0243  -4.5651  -4.5606  -4.0188  -4.0116  -3.8687  -3.8619
    -3.6985  -3.6930  -3.5964  -3.5910  -3.5059  -3.5029  -3.1972  -3.1889
    -2.9531  -2.9481  -2.8070  -2.8012  -2.7623  -2.7487  -2.4384  -2.4347
    -2.2616  -2.2577  -2.1925  -2.1898  -2.0639  -2.0573  -1.9437  -1.9394
    -1.9107  -1.9085  -1.7771  -1.7692  -1.5801  -1.5730  -1.4557  -1.4523
    -1.3090  -1.2997  -1.1712  -1.1693  -1.0066  -1.0032  -0.9057  -0.9012
    -0.7502  -0.7432  -0.6201  -0.6172  -0.1781  -0.1751   0.1331   0.1349
     0.6427   0.6444   0.9946   0.9998   1.1200   1.1224   1.2333   1.2337
     1.5698   1.5768   1.9704   1.9736   2.2205   2.2235   2.6972   2.7005
     2.8295   2.8329   3.4363   3.4367

          k =-0.5000 0.9833 0.0000 ( 87378 PWs)   bands (ev):

  -103.4185-103.4045-103.4009-103.3945-103.0365-103.0291 -68.8263 -68.8253
   -68.8248 -68.8242 -63.9957 -63.9808 -63.9806 -63.9753 -63.8271 -63.8157
   -63.7798 -63.7704 -63.6961 -63.6842 -63.6606 -63.6522 -63.5409 -63.5349
   -63.5049 -63.4976 -63.3111 -63.3026 -35.3022 -35.3015 -35.3010 -35.3000
   -35.2731 -35.2725 -35.2723 -35.2710 -35.2545 -35.2539 -35.2505 -35.2497
   -12.5639 -12.5576 -12.0499 -12.0470 -11.9142 -11.9080 -11.6288 -11.6245
   -11.5061 -11.5038  -5.8371  -5.8297  -5.4670  -5.4610  -5.1538  -5.1466
    -4.9176  -4.9140  -4.4969  -4.4914  -4.2310  -4.2284  -4.1430  -4.1378
    -3.8203  -3.8160  -3.6899  -3.6875  -3.6603  -3.6559  -3.3991  -3.3896
    -3.2361  -3.2313  -3.0299  -3.0213  -2.8670  -2.8616  -2.6924  -2.6873
    -2.5057  -2.5021  -2.4499  -2.4487  -2.2376  -2.2322  -2.1231  -2.1179
    -2.0097  -2.0070  -1.8490  -1.8465  -1.6321  -1.6227  -1.5693  -1.5675
    -1.3746  -1.3655  -1.3380  -1.3343  -1.1056  -1.1014  -1.0469  -1.0375
    -0.9348  -0.9305  -0.5673  -0.5656  -0.4015  -0.3993   0.4192   0.4208
     0.7158   0.7177   0.9178   0.9196   1.1475   1.1538   1.1945   1.1981
     1.4274   1.4328   1.8144   1.8211   2.1451   2.1477   2.4233   2.4272
     2.5570   2.5588   3.7859   3.7879

          k =-0.5000 1.4750 0.0000 ( 87280 PWs)   bands (ev):

  -103.4179-103.4034-103.4014-103.3956-103.0365-103.0291 -68.8258 -68.8248
   -68.8243 -68.8237 -63.9957 -63.9809 -63.9805 -63.9758 -63.8229 -63.8113
   -63.7882 -63.7789 -63.6896 -63.6773 -63.6627 -63.6547 -63.5409 -63.5348
   -63.5049 -63.4975 -63.3111 -63.3026 -35.2997 -35.2989 -35.2985 -35.2975
   -35.2952 -35.2945 -35.2943 -35.2931 -35.2517 -35.2510 -35.2484 -35.2475
   -12.1696 -12.1637 -11.7489 -11.7427 -11.7301 -11.7252 -11.4467 -11.4427
   -11.3385 -11.3371  -5.7426  -5.7351  -5.3720  -5.3637  -5.2219  -5.2172
    -4.9794  -4.9739  -4.6249  -4.6194  -4.4550  -4.4495  -4.1380  -4.1335
    -4.0574  -4.0545  -3.9783  -3.9731  -3.7273  -3.7255  -3.5704  -3.5648
    -3.2270  -3.2237  -3.1889  -3.1796  -3.0263  -3.0199  -2.9214  -2.9165
    -2.6544  -2.6495  -2.5964  -2.5906  -2.3354  -2.3319  -2.2021  -2.2007
    -2.1076  -2.1040  -2.0125  -2.0089  -1.6988  -1.6860  -1.6157  -1.6082
    -1.4647  -1.4584  -1.4494  -1.4478  -1.3058  -1.3008  -1.1206  -1.1164
    -0.9748  -0.9722  -0.7637  -0.7604  -0.6088  -0.6043   0.4615   0.4641
     0.8782   0.8818   1.0218   1.0234   1.1931   1.1943   1.2449   1.2476
     1.5805   1.5869   1.7891   1.7935   2.2466   2.2516   2.5319   2.5346
     2.6984   2.7025   3.6332   3.6364

          k =-0.5000 1.9666 0.0000 ( 87146 PWs)   bands (ev):

  -103.4174-103.4022-103.4019-103.3967-103.0365-103.0291 -68.8254 -68.8244
   -68.8239 -68.8233 -63.9957 -63.9811 -63.9803 -63.9762 -63.8172 -63.8049
   -63.7965 -63.7878 -63.6839 -63.6704 -63.6652 -63.6585 -63.5409 -63.5349
   -63.5048 -63.4975 -63.3110 -63.3025 -35.3136 -35.3129 -35.3127 -35.3114
   -35.2970 -35.2963 -35.2958 -35.2948 -35.2493 -35.2486 -35.2468 -35.2458
   -11.7445 -11.7392 -11.5712 -11.5669 -11.4746 -11.4721 -11.3045 -11.3019
   -11.1973 -11.1951  -6.1280  -6.1274  -5.9185  -5.9151  -5.3622  -5.3585
    -5.0577  -5.0488  -4.7822  -4.7746  -4.4027  -4.3962  -4.1307  -4.1241
    -3.9343  -3.9314  -3.8188  -3.8142  -3.6355  -3.6319  -3.5167  -3.5127
    -3.3713  -3.3705  -3.2575  -3.2520  -3.1167  -3.1094  -2.9833  -2.9769
    -2.7292  -2.7244  -2.5689  -2.5666  -2.3941  -2.3895  -2.2255  -2.2242
    -2.1988  -2.1941  -2.0902  -2.0863  -1.7952  -1.7794  -1.7774  -1.7709
    -1.5554  -1.5523  -1.4523  -1.4488  -1.4001  -1.3948  -1.1663  -1.1609
    -1.1255  -1.1240  -0.8754  -0.8678  -0.7920  -0.7879   0.3328   0.3368
     0.9211   0.9256   1.0689   1.0703   1.2721   1.2732   1.6431   1.6475
     1.7618   1.7631   1.9505   1.9550   2.1346   2.1386   2.7849   2.7881
     2.8488   2.8518   3.2766   3.2805

          k =-0.5000-2.4583 0.0000 ( 87092 PWs)   bands (ev):

  -103.4172-103.4021-103.4016-103.3974-103.0365-103.0291 -68.8253 -68.8242
   -68.8237 -68.8232 -63.9957 -63.9812 -63.9803 -63.9764 -63.8134 -63.8011
   -63.7988 -63.7947 -63.6813 -63.6667 -63.6657 -63.6622 -63.5410 -63.5349
   -63.5049 -63.4975 -63.3108 -63.3023 -35.3204 -35.3198 -35.3195 -35.3183
   -35.2962 -35.2954 -35.2950 -35.2940 -35.2484 -35.2476 -35.2462 -35.2452
   -11.5436 -11.5349 -11.4259 -11.4253 -11.4094 -11.4092 -11.2922 -11.2906
   -11.1387 -11.1356  -6.3666  -6.3664  -6.1546  -6.1511  -5.5338  -5.5299
    -5.0664  -5.0640  -4.9271  -4.9207  -4.1431  -4.1429  -4.1192  -4.1127
    -3.8581  -3.8567  -3.6678  -3.6625  -3.6038  -3.6006  -3.5537  -3.5481
    -3.4840  -3.4824  -3.2958  -3.2940  -3.0343  -3.0279  -2.9869  -2.9855
    -2.7639  -2.7585  -2.5479  -2.5477  -2.3523  -2.3507  -2.2873  -2.2845
    -2.2301  -2.2294  -1.9977  -1.9883  -1.9740  -1.9705  -1.8418  -1.8302
    -1.5603  -1.5600  -1.4516  -1.4454  -1.3691  -1.3646  -1.2655  -1.2610
    -1.2022  -1.1946  -0.9971  -0.9965  -0.7868  -0.7817   0.2966   0.3014
     0.9502   0.9540   1.0758   1.0779   1.1524   1.1527   1.7524   1.7540
     1.9148   1.9156   2.1315   2.1337   2.1882   2.1899   2.6373   2.6378
     2.7479   2.7518   3.4829   3.5138

     the Fermi energy is    -0.0688 ev

!    total energy              =   -9109.88621988 Ry
     total all-electron energy =     -9109.886220 Ry
     estimated scf accuracy    <          6.5E-11 Ry
     smearing contrib. (-TS)   =      -0.00016478 Ry
     internal energy E=F+TS    =   -9109.88605510 Ry

     The total energy is F=E-TS. E is the sum of the following terms:
     one-electron contribution =  -16168.97346928 Ry
     hartree contribution      =    7942.42116452 Ry
     xc contribution           =    -364.81127853 Ry
     ewald contribution        =    5749.16328767 Ry
     one-center paw contrib.   =   -6267.68575947 Ry

     convergence has been achieved in  18 iterations

     negative rho (up, down):  6.560E-02 0.000E+00

     Forces acting on atoms (cartesian axes, Ry/au):

     atom    1 type  1   force =     0.00040226    0.00000000   -0.00040961
     atom    2 type  1   force =    -0.00061244    0.00000000   -0.00007014
     atom    3 type  1   force =    -0.00014586    0.00000000   -0.00041195
     atom    4 type  1   force =    -0.00059522    0.00000000    0.00019748
     atom    5 type  2   force =    -0.00075539    0.00000000    0.00064103
     atom    6 type  2   force =    -0.00034289    0.00000000    0.00026720
     atom    7 type  2   force =     0.00001821    0.00000000    0.00059590
     atom    8 type  2   force =     0.00040224    0.00000000    0.00072587
     atom    9 type  2   force =     0.00007204    0.00000000   -0.00008441
     atom   10 type  2   force =     0.00019592    0.00000000   -0.00070963
     atom   11 type  3   force =     0.00058248    0.00000000   -0.00056797
     atom   12 type  3   force =    -0.00020534    0.00000000   -0.00006911
     atom   13 type  3   force =     0.00070287    0.00000000   -0.00009072
     atom   14 type  3   force =     0.00001392    0.00000000   -0.00037307
     atom   15 type  3   force =     0.00004979    0.00000000    0.00001189
     atom   16 type  3   force =    -0.00099946    0.00000000    0.00020884
     atom   17 type  3   force =    -0.00025168    0.00000000    0.00011626
     atom   18 type  3   force =     0.00046466    0.00000000    0.00010471
     atom   19 type  3   force =     0.00065397    0.00000000    0.00045118
     atom   20 type  3   force =     0.00034991    0.00000000   -0.00053376

     Total force =     0.002793     Total SCF correction =     0.000040


     Computing stress (Cartesian axis) and pressure


     negative rho (up, down):  6.560E-02 0.000E+00
          total   stress  (Ry/bohr**3)                   (kbar)     P=       -4.84
  -0.00005211   0.00000000  -0.00000061           -7.67        0.00       -0.09
   0.00000000  -0.00000830   0.00000000            0.00       -1.22        0.00
  -0.00000061   0.00000000  -0.00003825           -0.09        0.00       -5.63

     Energy error            =      1.6E-05 Ry
     Gradient error          =      1.0E-03 Ry/Bohr

     bfgs converged in  18 scf cycles and  17 bfgs steps
     (criteria: energy <  1.0E-04 Ry, force <  1.0E-03 Ry/Bohr)

     End of BFGS Geometry Optimization

     Final energy             =   -9109.8862198808 Ry

     File /ddn/data/physics/eamoujaes/2D-Ta2Ni3Te5/ELASTIC/OUT/ta2ni3te5.bfgs deleted, as requested
Begin final coordinates

ATOMIC_POSITIONS (angstrom)
Ta              15.5246886151        0.9149235643       12.4278879177
Ta               6.5363363801        2.7447696811       12.6088335129
Ta               2.1650235267        0.9149235643       12.4346222263
Ta              11.1606288538        2.7447696811       12.6025879022
Ni              12.9550164050        0.9149235643       11.7566752241
Ni               3.9622638063        2.7447696811       13.2690874713
Ni               4.7377272956        0.9149235643       11.7674096115
Ni              13.7303494762        2.7447696811       13.2569124267
Ni               8.8451243714        0.9149235643       12.3525082000
Ni              -0.1517181637        2.7447696811       12.6954350108
Te              14.3265837470        2.7447696811       10.5366633161
Te               5.3351773647        0.9149235643       14.4948098971
Te              10.6506882606        0.9149235643       10.5372535348
Te               1.6636565653        2.7447696811       14.5026692251
Te               3.3630300169        2.7447696811       10.5453412827
Te              12.3680008792        0.9149235643       14.4867842791
Te               7.0353540042        0.9149235643       10.5401462909
Te              16.0229295767        2.7447696811       14.4964612763
Te              -0.1519087385        0.9149235643       10.8828961613
Te               8.8496101207        2.7447696811       14.1632662329
End final coordinates



     Writing all to output data dir /ddn/data/physics/eamoujaes/2D-Ta2Ni3Te5/ELASTIC/OUT/ta2ni3te5.save/ :
     XML data file, charge density, pseudopotentials, collected wavefunctions
 
     init_run     :     51.75s CPU     63.81s WALL (       1 calls)
     electrons    :  11008.79s CPU  14282.98s WALL (      18 calls)
     update_pot   :    454.82s CPU    583.97s WALL (      17 calls)
     forces       :     32.04s CPU     40.04s WALL (      18 calls)
     stress       :     57.59s CPU     88.80s WALL (      18 calls)

     Called by init_run:
     wfcinit      :      5.76s CPU      7.44s WALL (       1 calls)
     potinit      :     41.40s CPU     50.50s WALL (       1 calls)
     hinit0       :      2.58s CPU      3.03s WALL (       1 calls)

     Called by electrons:
     c_bands      :    773.16s CPU   1122.89s WALL (     378 calls)
     sum_band     :    340.86s CPU    427.80s WALL (     378 calls)
     v_of_rho     :    134.31s CPU    180.29s WALL (     391 calls)
     newd         :     28.91s CPU     46.13s WALL (     391 calls)
                                       46.13s GPU  (     391 calls)
     PAW_pot      :  10532.49s CPU  13523.64s WALL (     408 calls)
     mix_rho      :     42.88s CPU     79.80s WALL (     378 calls)

     Called by c_bands:
     init_us_2    :     71.70s CPU     90.43s WALL (    9720 calls)
     init_us_2:cp :     60.23s CPU     76.35s WALL (     204 calls)
     init_us_2:gp :     11.23s CPU     13.81s WALL (    9516 calls)
     cegterg      :    438.06s CPU    736.58s WALL (    4536 calls)

     Called by *egterg:
     cdiaghg      :     39.76s CPU     63.31s WALL (   15740 calls)
                                       63.22s GPU  (   15740 calls)
     h_psi        :    313.48s CPU    532.25s WALL (   16016 calls)
                                      530.97s GPU  (   16016 calls)
     s_psi        :      7.27s CPU      9.94s WALL (   16016 calls)
     g_psi        :      0.04s CPU      4.56s WALL (   11468 calls)
                                        4.47s GPU  (   11468 calls)

     Called by h_psi:
     h_psi:calbec :      0.52s CPU     21.03s WALL (   16016 calls)
                                       20.89s GPU  (   16016 calls)
     vloc_psi     :    280.71s CPU    479.77s WALL (   16016 calls)
                                      479.68s GPU  (   16016 calls)
     add_vuspsi   :      5.51s CPU     26.19s WALL (   16016 calls)
                                       26.08s GPU  (   16016 calls)

     General routines
     calbec       :    173.33s CPU    298.97s WALL (   21836 calls)
     fft          :     35.56s CPU     37.58s WALL (    5519 calls)
                                        2.03s GPU  (    5128 calls)
     ffts         :     10.09s CPU     10.16s WALL (     769 calls)
                                        0.05s GPU  (     378 calls)
     fftw         :      1.68s CPU    421.46s WALL (  230318 calls)
                                      418.94s GPU  (  230318 calls)
     interpolate  :     52.15s CPU     55.45s WALL (     391 calls)
 
     Parallel routines
 
     PWSCF        :      3h24m CPU      4h27m WALL

 
   This run was terminated on:   0:19:34  29Jul2024            

=------------------------------------------------------------------------------=
   JOB DONE.
=------------------------------------------------------------------------------=
