
     Program PWSCF v.7.3 starts on 29Jul2024 at  0:19:44 

     This program is part of the open-source Quantum ESPRESSO suite
     for quantum simulation of materials; please cite
         "P. Giannozzi et al., J. Phys.:Condens. Matter 21 395502 (2009);
         "P. Giannozzi et al., J. Phys.:Condens. Matter 29 465901 (2017);
         "P. Giannozzi et al., J. Chem. Phys. 152 154105 (2020);
          URL http://www.quantum-espresso.org", 
     in publications or presentations arising from this work. More details at
     http://www.quantum-espresso.org/quote

     Parallel version (MPI & OpenMP), running on      32 processor cores
     Number of MPI processes:                 1
     Threads/MPI process:                    32

     MPI processes distributed on     1 nodes
     354086 MiB available memory on the printing compute node when the environment starts
 
     Waiting for input...
     Reading input from standard input
Warning: card &CELL ignored
Warning: card CELL_DYNAMICS='BFGS' ignored
Warning: card PRESS=0.0 ignored
Warning: card CELL_DOFREE='2DXY' ignored
Warning: card / ignored

     Current dimensions of program PWSCF are:
     Max number of different atomic species (ntypx) = 10
     Max number of k-points (npk) =  40000
     Max angular momentum in pseudopotentials (lmaxx) =  4
read_pp_mesh; mismatch in mesh size, discarding the one in header
read_pp_mesh; mismatch in mesh size, discarding the one in header
read_pp_mesh; mismatch in mesh size, discarding the one in header
     Message from routine setup:
     using ibrav=0 with symmetry is DISCOURAGED, use correct ibrav instead
 
     Subspace diagonalization in iterative solution of the eigenvalue problem:
     a serial algorithm will be used

 
     G-vector sticks info
     --------------------
     sticks:   dense  smooth     PW     G-vecs:    dense   smooth      PW
     Sum        9165    4577   1285              2013989   711793  105747
 
     Using Slab Decomposition
 


     bravais-lattice index     =            0
     lattice parameter (alat)  =      34.6691  a.u.
     unit-cell volume          =   11343.3916 (a.u.)^3
     number of atoms/cell      =           20
     number of atomic types    =            3
     number of electrons       =       220.00
     number of Kohn-Sham states=          132
     kinetic-energy cutoff     =      60.0000  Ry
     charge density cutoff     =     480.0000  Ry
     scf convergence threshold =      1.0E-08
     mixing beta               =       0.2000
     number of iterations used =            8  plain     mixing
     energy convergence thresh.=      1.0E-04
     force convergence thresh. =      1.0E-03
     Exchange-correlation= SLA PW PBX PBC
                           (   1   4   3   4   0   0   0)
     nstep                     =         2000


     GPU acceleration is ACTIVE.  1 visible GPUs per MPI rank
     GPU-aware MPI enabled


     celldm(1)=  34.669104  celldm(2)=   0.000000  celldm(3)=   0.000000
     celldm(4)=   0.000000  celldm(5)=   0.000000  celldm(6)=   0.000000

     crystal axes: (cart. coord. in units of alat)
               a(1) = (   1.000000   0.000000   0.000000 )  
               a(2) = (   0.000000   0.199481   0.000000 )  
               a(3) = (   0.000000   0.000000   1.364628 )  

     reciprocal axes: (cart. coord. in units 2 pi/alat)
               b(1) = (  1.000000  0.000000  0.000000 )  
               b(2) = (  0.000000  5.013017  0.000000 )  
               b(3) = (  0.000000  0.000000  0.732800 )  


     PseudoPot. # 1 for Ta read from file:
     /ddn/data/physics/eamoujaes/PSEUDO-CREATED/Ta.upf
     MD5 check sum: d865b2c2c09566b116f2b8decb2c153d
     Pseudo is Projector augmented-wave + core cor, Zval = 13.0
     Generated using ATOMPAW code
     Shape of augmentation charge: SINC**2
     Using radial grid of 2342 points,  6 beta functions with: 
                l(1) =   0
                l(2) =   0
                l(3) =   1
                l(4) =   1
                l(5) =   2
                l(6) =   2
     Q(r) pseudized with 0 coefficients 


     PseudoPot. # 2 for Ni read from file:
     /ddn/data/physics/eamoujaes/PSEUDO-CREATED/Ni.upf
     MD5 check sum: 85a2a5d9d38f4289a1cc30d5adb66a03
     Pseudo is Projector augmented-wave + core cor, Zval = 18.0
     Generated using ATOMPAW code
     Shape of augmentation charge: SINC**2
     Using radial grid of 2342 points,  6 beta functions with: 
                l(1) =   0
                l(2) =   0
                l(3) =   1
                l(4) =   1
                l(5) =   2
                l(6) =   2
     Q(r) pseudized with 0 coefficients 


     PseudoPot. # 3 for Te read from file:
     /ddn/data/physics/eamoujaes/PSEUDO-CREATED/Te.upf
     MD5 check sum: 8d958f193a7511a138982c2e72838810
     Pseudo is Projector augmented-wave + core cor, Zval =  6.0
     Generated using ATOMPAW code
     Shape of augmentation charge: SINC**2
     Using radial grid of 2342 points,  4 beta functions with: 
                l(1) =   0
                l(2) =   0
                l(3) =   1
                l(4) =   1
     Q(r) pseudized with 0 coefficients 


     atomic species   valence    mass     pseudopotential
     Ta               13.00   180.94790     Ta( 1.00)
     Ni               18.00    58.69340     Ni( 1.00)
     Te                6.00   127.60000     Te( 1.00)

      2 Sym. Ops. (no inversion) found ( 1 have fractional translation)



   Cartesian axes

     site n.     atom                  positions (alat units)
         1        Ta     tau(   1) = (   0.8389707   0.0498702   0.6782826  )
         2        Ta     tau(   2) = (   0.3581988   0.1496105   0.6863582  )
         3        Ta     tau(   3) = (   0.1234680   0.0498702   0.6782731  )
         4        Ta     tau(   4) = (   0.6042403   0.1496105   0.6863669  )
         5        Ni     tau(   5) = (   0.7012067   0.0498702   0.6411003  )
         6        Ni     tau(   6) = (   0.2204338   0.1496105   0.7235404  )
         7        Ni     tau(   7) = (   0.2612254   0.0498702   0.6410857  )
         8        Ni     tau(   8) = (   0.7419975   0.1496105   0.7235544  )
         9        Ni     tau(   9) = (   0.4812111   0.0498702   0.6741599  )
        10        Ni     tau(  10) = (   0.0004403   0.1496105   0.6904797  )
        11        Te     tau(  11) = (   0.7747174   0.1496105   0.5742505  )
        12        Te     tau(  12) = (   0.2939438   0.0498702   0.7903899  )
        13        Te     tau(  13) = (   0.5775305   0.0498702   0.5733826  )
        14        Te     tau(  14) = (   0.0967590   0.1496105   0.7912578  )
        15        Te     tau(  15) = (   0.1877069   0.1496105   0.5742383  )
        16        Te     tau(  16) = (   0.6684794   0.0498702   0.7904019  )
        17        Te     tau(  17) = (   0.3849111   0.0498702   0.5733737  )
        18        Te     tau(  18) = (   0.8656827   0.1496105   0.7912672  )
        19        Te     tau(  19) = (   0.0004524   0.0498702   0.5907315  )
        20        Te     tau(  20) = (   0.4812226   0.1496105   0.7739071  )

     number of k points=    12  Gaussian smearing, width (Ry)=  0.0020
                       cart. coord. in units 2pi/alat
        k(    1) = (   0.0000000   0.0000000   0.0000000), wk =   0.1000000
        k(    2) = (   0.0000000   0.5013017   0.0000000), wk =   0.2000000
        k(    3) = (   0.0000000   1.0026034   0.0000000), wk =   0.2000000
        k(    4) = (   0.0000000   1.5039052   0.0000000), wk =   0.2000000
        k(    5) = (   0.0000000   2.0052069   0.0000000), wk =   0.2000000
        k(    6) = (   0.0000000  -2.5065086   0.0000000), wk =   0.1000000
        k(    7) = (  -0.5000000   0.0000000   0.0000000), wk =   0.1000000
        k(    8) = (  -0.5000000   0.5013017   0.0000000), wk =   0.2000000
        k(    9) = (  -0.5000000   1.0026034   0.0000000), wk =   0.2000000
        k(   10) = (  -0.5000000   1.5039052   0.0000000), wk =   0.2000000
        k(   11) = (  -0.5000000   2.0052069   0.0000000), wk =   0.2000000
        k(   12) = (  -0.5000000  -2.5065086   0.0000000), wk =   0.1000000

     Dense  grid:  2013989 G-vectors     FFT dimensions: ( 243,  50, 360)

     Smooth grid:   711793 G-vectors     FFT dimensions: ( 180,  36, 240)

     Estimated max dynamical RAM per process >      10.29 GB

     Initial potential from superposition of free atoms

     starting charge     219.9927, renormalised to     220.0000

     negative rho (up, down):  5.208E-02 0.000E+00
     Starting wfcs are  260 randomized atomic wfcs
     Checking if some PAW data can be deallocated... 

     total cpu time spent up to now is       65.9 secs

     Self-consistent Calculation

     iteration #  1     ecut=    60.00 Ry     beta= 0.20
     Davidson diagonalization with overlap
     ethr =  1.00E-02,  avg # of iterations =  2.8

     negative rho (up, down):  5.257E-02 0.000E+00

     total cpu time spent up to now is      103.3 secs

     total energy              =   -9107.85708915 Ry
     estimated scf accuracy    <       7.90629210 Ry

     iteration #  2     ecut=    60.00 Ry     beta= 0.20
     Davidson diagonalization with overlap
     ethr =  3.59E-03,  avg # of iterations =  2.8

     negative rho (up, down):  5.343E-02 0.000E+00

     total cpu time spent up to now is      140.6 secs

     total energy              =   -9106.79979812 Ry
     estimated scf accuracy    <      31.80252654 Ry

     iteration #  3     ecut=    60.00 Ry     beta= 0.20
     Davidson diagonalization with overlap
     ethr =  3.59E-03,  avg # of iterations =  2.0

     negative rho (up, down):  5.389E-02 0.000E+00

     total cpu time spent up to now is      177.6 secs

     total energy              =   -9107.73057137 Ry
     estimated scf accuracy    <      69.02352842 Ry

     iteration #  4     ecut=    60.00 Ry     beta= 0.20
     Davidson diagonalization with overlap
     ethr =  3.59E-03,  avg # of iterations =  1.0

     negative rho (up, down):  5.491E-02 0.000E+00

     total cpu time spent up to now is      214.3 secs

     total energy              =   -9109.88620399 Ry
     estimated scf accuracy    <       2.22720078 Ry

     iteration #  5     ecut=    60.00 Ry     beta= 0.20
     Davidson diagonalization with overlap
     ethr =  1.01E-03,  avg # of iterations =  1.0

     negative rho (up, down):  5.587E-02 0.000E+00

     total cpu time spent up to now is      251.0 secs

     total energy              =   -9109.89154245 Ry
     estimated scf accuracy    <       1.24345603 Ry

     iteration #  6     ecut=    60.00 Ry     beta= 0.20
     Davidson diagonalization with overlap
     ethr =  5.65E-04,  avg # of iterations =  1.0

     negative rho (up, down):  5.783E-02 0.000E+00

     total cpu time spent up to now is      287.7 secs

     total energy              =   -9109.80360663 Ry
     estimated scf accuracy    <       0.83681847 Ry

     iteration #  7     ecut=    60.00 Ry     beta= 0.20
     Davidson diagonalization with overlap
     ethr =  3.80E-04,  avg # of iterations =  1.1

     negative rho (up, down):  6.118E-02 0.000E+00

     total cpu time spent up to now is      324.7 secs

     total energy              =   -9109.76094291 Ry
     estimated scf accuracy    <       0.32785676 Ry

     iteration #  8     ecut=    60.00 Ry     beta= 0.20
     Davidson diagonalization with overlap
     ethr =  1.49E-04,  avg # of iterations =  6.3

     negative rho (up, down):  6.191E-02 0.000E+00

     total cpu time spent up to now is      363.1 secs

     total energy              =   -9109.81669569 Ry
     estimated scf accuracy    <       0.40278432 Ry

     iteration #  9     ecut=    60.00 Ry     beta= 0.20
     Davidson diagonalization with overlap
     ethr =  1.49E-04,  avg # of iterations =  1.1

     negative rho (up, down):  6.234E-02 0.000E+00

     total cpu time spent up to now is      400.4 secs

     total energy              =   -9109.78775556 Ry
     estimated scf accuracy    <       0.17432605 Ry

     iteration # 10     ecut=    60.00 Ry     beta= 0.20
     Davidson diagonalization with overlap
     ethr =  7.92E-05,  avg # of iterations =  2.0

     negative rho (up, down):  6.318E-02 0.000E+00

     total cpu time spent up to now is      437.6 secs

     total energy              =   -9109.81010476 Ry
     estimated scf accuracy    <       0.02723493 Ry

     iteration # 11     ecut=    60.00 Ry     beta= 0.20
     Davidson diagonalization with overlap
     c_bands:  1 eigenvalues not converged
     c_bands:  1 eigenvalues not converged
     c_bands:  1 eigenvalues not converged
     c_bands:  1 eigenvalues not converged
     c_bands:  1 eigenvalues not converged
     ethr =  1.24E-05,  avg # of iterations = 15.6

     negative rho (up, down):  6.377E-02 0.000E+00

     total cpu time spent up to now is      476.8 secs

     total energy              =   -9109.80910107 Ry
     estimated scf accuracy    <       0.02826295 Ry

     iteration # 12     ecut=    60.00 Ry     beta= 0.20
     Davidson diagonalization with overlap
     c_bands:  1 eigenvalues not converged
     ethr =  1.24E-05,  avg # of iterations =  2.9

     negative rho (up, down):  6.444E-02 0.000E+00

     total cpu time spent up to now is      514.2 secs

     total energy              =   -9109.80886562 Ry
     estimated scf accuracy    <       0.00631804 Ry

     iteration # 13     ecut=    60.00 Ry     beta= 0.20
     Davidson diagonalization with overlap
     ethr =  2.87E-06,  avg # of iterations =  8.7

     negative rho (up, down):  6.489E-02 0.000E+00

     total cpu time spent up to now is      552.5 secs

     total energy              =   -9109.80954797 Ry
     estimated scf accuracy    <       0.00398509 Ry

     iteration # 14     ecut=    60.00 Ry     beta= 0.20
     Davidson diagonalization with overlap
     ethr =  1.81E-06,  avg # of iterations =  2.4

     negative rho (up, down):  6.505E-02 0.000E+00

     total cpu time spent up to now is      590.0 secs

     total energy              =   -9109.80974523 Ry
     estimated scf accuracy    <       0.00051316 Ry

     iteration # 15     ecut=    60.00 Ry     beta= 0.20
     Davidson diagonalization with overlap
     ethr =  2.33E-07,  avg # of iterations =  1.3

     negative rho (up, down):  6.516E-02 0.000E+00

     total cpu time spent up to now is      627.1 secs

     total energy              =   -9109.80977354 Ry
     estimated scf accuracy    <       0.00017610 Ry

     iteration # 16     ecut=    60.00 Ry     beta= 0.20
     Davidson diagonalization with overlap
     ethr =  8.00E-08,  avg # of iterations =  2.0

     negative rho (up, down):  6.519E-02 0.000E+00

     total cpu time spent up to now is      664.3 secs

     total energy              =   -9109.80979058 Ry
     estimated scf accuracy    <       0.00008838 Ry

     iteration # 17     ecut=    60.00 Ry     beta= 0.20
     Davidson diagonalization with overlap
     ethr =  4.02E-08,  avg # of iterations =  1.0

     negative rho (up, down):  6.518E-02 0.000E+00

     total cpu time spent up to now is      701.2 secs

     total energy              =   -9109.80979198 Ry
     estimated scf accuracy    <       0.00003516 Ry

     iteration # 18     ecut=    60.00 Ry     beta= 0.20
     Davidson diagonalization with overlap
     ethr =  1.60E-08,  avg # of iterations =  1.9

     negative rho (up, down):  6.520E-02 0.000E+00

     total cpu time spent up to now is      738.3 secs

     total energy              =   -9109.80979460 Ry
     estimated scf accuracy    <       0.00002005 Ry

     iteration # 19     ecut=    60.00 Ry     beta= 0.20
     Davidson diagonalization with overlap
     ethr =  9.12E-09,  avg # of iterations =  2.0

     negative rho (up, down):  6.519E-02 0.000E+00

     total cpu time spent up to now is      775.8 secs

     total energy              =   -9109.80979625 Ry
     estimated scf accuracy    <       0.00000845 Ry

     iteration # 20     ecut=    60.00 Ry     beta= 0.20
     Davidson diagonalization with overlap
     ethr =  3.84E-09,  avg # of iterations =  1.9

     negative rho (up, down):  6.517E-02 0.000E+00

     total cpu time spent up to now is      813.1 secs

     total energy              =   -9109.80979678 Ry
     estimated scf accuracy    <       0.00000889 Ry

     iteration # 21     ecut=    60.00 Ry     beta= 0.20
     Davidson diagonalization with overlap
     ethr =  3.84E-09,  avg # of iterations =  1.0

     negative rho (up, down):  6.515E-02 0.000E+00

     total cpu time spent up to now is      850.2 secs

     total energy              =   -9109.80979725 Ry
     estimated scf accuracy    <       0.00000104 Ry

     iteration # 22     ecut=    60.00 Ry     beta= 0.20
     Davidson diagonalization with overlap
     ethr =  4.74E-10,  avg # of iterations =  2.8

     negative rho (up, down):  6.512E-02 0.000E+00

     total cpu time spent up to now is      887.4 secs

     total energy              =   -9109.80979731 Ry
     estimated scf accuracy    <       0.00000079 Ry

     iteration # 23     ecut=    60.00 Ry     beta= 0.20
     Davidson diagonalization with overlap
     ethr =  3.60E-10,  avg # of iterations =  1.4

     negative rho (up, down):  6.510E-02 0.000E+00

     total cpu time spent up to now is      924.8 secs

     total energy              =   -9109.80979738 Ry
     estimated scf accuracy    <       0.00000034 Ry

     iteration # 24     ecut=    60.00 Ry     beta= 0.20
     Davidson diagonalization with overlap
     ethr =  1.56E-10,  avg # of iterations =  2.0

     negative rho (up, down):  6.508E-02 0.000E+00

     total cpu time spent up to now is      961.8 secs

     total energy              =   -9109.80979742 Ry
     estimated scf accuracy    <       0.00000031 Ry

     iteration # 25     ecut=    60.00 Ry     beta= 0.20
     Davidson diagonalization with overlap
     ethr =  1.39E-10,  avg # of iterations =  1.0

     negative rho (up, down):  6.506E-02 0.000E+00

     total cpu time spent up to now is      998.8 secs

     total energy              =   -9109.80979743 Ry
     estimated scf accuracy    <       0.00000032 Ry

     iteration # 26     ecut=    60.00 Ry     beta= 0.20
     Davidson diagonalization with overlap
     ethr =  1.39E-10,  avg # of iterations =  1.0

     negative rho (up, down):  6.505E-02 0.000E+00

     total cpu time spent up to now is     1035.6 secs

     total energy              =   -9109.80979744 Ry
     estimated scf accuracy    <       0.00000012 Ry

     iteration # 27     ecut=    60.00 Ry     beta= 0.20
     Davidson diagonalization with overlap
     ethr =  5.67E-11,  avg # of iterations =  1.0

     negative rho (up, down):  6.504E-02 0.000E+00

     total cpu time spent up to now is     1072.6 secs

     total energy              =   -9109.80979745 Ry
     estimated scf accuracy    <       0.00000002 Ry

     iteration # 28     ecut=    60.00 Ry     beta= 0.20
     Davidson diagonalization with overlap
     ethr =  7.60E-12,  avg # of iterations =  3.6

     negative rho (up, down):  6.501E-02 0.000E+00

     total cpu time spent up to now is     1110.2 secs

     End of self-consistent calculation

          k = 0.0000 0.0000 0.0000 ( 89197 PWs)   bands (ev):

  -103.7220-103.6546-103.4870-103.4653-103.1385-102.8275 -69.2301 -68.8689
   -68.8051 -68.7973 -64.2775 -64.2203 -64.1445 -64.0553 -64.0481 -64.0450
   -63.9936 -63.9230 -63.8938 -63.8314 -63.7808 -63.7341 -63.6393 -63.6000
   -63.4230 -63.3243 -63.2148 -63.2076 -35.7313 -35.6073 -35.5855 -35.3460
   -35.3274 -35.2952 -35.2947 -35.2712 -35.2422 -35.2351 -35.2343 -35.2341
   -13.0921 -12.8782 -12.5687 -12.3307 -12.2159 -11.9890 -11.9407 -11.8524
   -11.6964 -11.6533  -6.3426  -6.1401  -5.8665  -5.7659  -5.6157  -5.4839
    -5.3103  -4.8318  -4.7517  -4.3719  -4.2308  -4.0724  -3.9704  -3.9512
    -3.8963  -3.8048  -3.7889  -3.5384  -3.5342  -3.3915  -3.3728  -3.1690
    -2.9780  -2.8562  -2.7696  -2.7553  -2.7482  -2.6238  -2.5146  -2.4063
    -2.3805  -2.3791  -2.2495  -2.1578  -2.1309  -2.0574  -1.9712  -1.9063
    -1.8321  -1.8170  -1.7638  -1.6116  -1.5191  -1.4933  -1.4482  -1.3769
    -1.3669  -1.2871  -1.2273  -1.1813  -1.1595  -1.0963  -0.9804  -0.8698
    -0.7980  -0.7677  -0.6718  -0.5427  -0.3195  -0.2043  -0.0705   0.1540
     0.4566   0.5418   0.9038   0.9653   1.0456   1.1043   1.2564   1.2753
     1.3134   1.6475   1.6945   2.0423   2.1549   2.2492   2.7152   2.9443
     3.0435   3.1814   3.2425   3.2459

          k = 0.0000 0.5013 0.0000 ( 89137 PWs)   bands (ev):

  -103.7220-103.6547-103.4869-103.4654-103.1385-102.8275 -69.2300 -68.8688
   -68.8050 -68.7971 -64.2775 -64.2204 -64.1440 -64.0552 -64.0503 -64.0451
   -63.9916 -63.9231 -63.8930 -63.8342 -63.7783 -63.7344 -63.6393 -63.6000
   -63.4230 -63.3243 -63.2148 -63.2076 -35.7307 -35.6141 -35.5845 -35.3452
   -35.3266 -35.3023 -35.2939 -35.2702 -35.2422 -35.2417 -35.2409 -35.2334
   -12.9985 -12.7861 -12.4864 -12.2671 -12.1601 -11.9322 -11.8863 -11.8042
   -11.6412 -11.6136  -6.2589  -6.0572  -5.7693  -5.6691  -5.5348  -5.3804
    -5.2253  -4.7658  -4.6861  -4.3578  -4.2324  -4.1287  -4.0766  -4.0370
    -3.9679  -3.9167  -3.7910  -3.5310  -3.5001  -3.4075  -3.3847  -3.1380
    -3.0905  -3.0335  -2.8821  -2.8556  -2.8192  -2.7758  -2.7065  -2.5042
    -2.4137  -2.3529  -2.3393  -2.2565  -2.1346  -2.0683  -2.0199  -1.9847
    -1.9678  -1.8648  -1.7933  -1.7396  -1.6555  -1.6500  -1.5793  -1.5082
    -1.4362  -1.3990  -1.2965  -1.2044  -1.1745  -1.0811  -1.0585  -0.8677
    -0.8443  -0.7841  -0.7019  -0.6397  -0.3180  -0.1207  -0.0836   0.2175
     0.4291   0.5242   0.7303   0.9231   1.0040   1.0372   1.1630   1.3053
     1.3243   1.5620   1.7421   1.8288   1.9559   2.2678   2.4528   2.6019
     2.7034   2.8142   2.9636   3.2192

          k = 0.0000 1.0026 0.0000 ( 89121 PWs)   bands (ev):

  -103.7219-103.6548-103.4865-103.4658-103.1385-102.8275 -69.2296 -68.8683
   -68.8045 -68.7967 -64.2777 -64.2208 -64.1424 -64.0557 -64.0552 -64.0454
   -63.9870 -63.9236 -63.8908 -63.8411 -63.7725 -63.7355 -63.6393 -63.5999
   -63.4230 -63.3243 -63.2148 -63.2077 -35.7292 -35.6317 -35.5820 -35.3431
   -35.3243 -35.3205 -35.2918 -35.2679 -35.2604 -35.2594 -35.2391 -35.2317
   -12.7312 -12.5241 -12.2559 -12.1038 -11.9992 -11.7791 -11.7361 -11.6657
   -11.5228 -11.4739  -6.0509  -5.8476  -5.5247  -5.4604  -5.3120  -5.1245
    -5.0140  -4.8004  -4.5888  -4.4830  -4.3693  -4.3082  -4.2437  -4.1683
    -4.1363  -4.0156  -3.8717  -3.7413  -3.6442  -3.5616  -3.4981  -3.4282
    -3.3141  -3.1987  -3.1332  -3.0293  -2.9907  -2.9179  -2.8397  -2.7195
    -2.6209  -2.5926  -2.5447  -2.4802  -2.3947  -2.2909  -2.2343  -2.1523
    -2.0976  -2.0206  -1.9223  -1.8255  -1.7879  -1.7269  -1.6759  -1.6112
    -1.5742  -1.4851  -1.4350  -1.3417  -1.1983  -1.1433  -1.0843  -1.0242
    -0.9819  -0.9475  -0.7695  -0.6576  -0.5111  -0.3608   0.1853   0.4502
     0.4687   0.6716   0.7271   0.8412   0.8583   0.9794   1.0481   1.1798
     1.4034   1.4696   1.5285   1.7689   1.9571   2.0261   2.1976   2.3096
     2.4301   2.5669   3.2804   3.6155

          k = 0.0000 1.5039 0.0000 ( 89069 PWs)   bands (ev):

  -103.7217-103.6549-103.4860-103.4663-103.1385-102.8275 -69.2291 -68.8678
   -68.8040 -68.7962 -64.2778 -64.2212 -64.1403 -64.0618 -64.0552 -64.0457
   -63.9820 -63.9243 -63.8872 -63.8495 -63.7660 -63.7372 -63.6393 -63.6000
   -63.4231 -63.3243 -63.2148 -63.2078 -35.7272 -35.6534 -35.5790 -35.3436
   -35.3399 -35.3216 -35.2893 -35.2827 -35.2821 -35.2646 -35.2362 -35.2296
   -12.3355 -12.1419 -11.9370 -11.8991 -11.7707 -11.6054 -11.5034 -11.4717
   -11.3932 -11.2678  -5.9332  -5.7431  -5.5903  -5.4713  -5.2523  -5.1519
    -5.0282  -4.9819  -4.7750  -4.6114  -4.5625  -4.3256  -4.2900  -4.2553
    -4.2202  -4.1484  -3.9901  -3.8862  -3.8184  -3.6778  -3.6556  -3.6168
    -3.5873  -3.3476  -3.2039  -3.1798  -3.1282  -2.9979  -2.9194  -2.8702
    -2.8341  -2.7863  -2.6590  -2.5837  -2.5581  -2.4056  -2.3123  -2.2596
    -2.1777  -2.1686  -2.0632  -1.9731  -1.9226  -1.8327  -1.7979  -1.6982
    -1.6208  -1.5653  -1.4853  -1.4106  -1.3769  -1.2938  -1.2393  -1.1377
    -1.0783  -1.0152  -0.8793  -0.7557  -0.7238  -0.5656   0.3209   0.3987
     0.5304   0.6113   0.8462   0.9155   1.0896   1.1383   1.1535   1.2671
     1.4117   1.4731   1.5854   1.7806   1.8922   2.2182   2.2942   2.4392
     2.6736   2.7181   3.2833   3.4519

          k = 0.0000 2.0052 0.0000 ( 88887 PWs)   bands (ev):

  -103.7216-103.6550-103.4855-103.4667-103.1385-102.8275 -69.2287 -68.8674
   -68.8036 -68.7958 -64.2779 -64.2215 -64.1381 -64.0664 -64.0551 -64.0459
   -63.9781 -63.9248 -63.8825 -63.8571 -63.7606 -63.7391 -63.6393 -63.5999
   -63.4229 -63.3242 -63.2148 -63.2076 -35.7256 -35.6709 -35.5765 -35.3613
   -35.3383 -35.3193 -35.3010 -35.3002 -35.2869 -35.2621 -35.2339 -35.2279
   -11.9125 -11.7676 -11.7098 -11.6505 -11.5446 -11.4502 -11.3552 -11.2815
   -11.2652 -11.1041  -6.2354  -6.1950  -6.0650  -6.0591  -5.4312  -5.2083
    -5.1279  -5.0562  -4.8962  -4.8087  -4.5502  -4.4415  -4.3300  -4.0789
    -4.0087  -3.9299  -3.8427  -3.7745  -3.7496  -3.6981  -3.6587  -3.5680
    -3.5278  -3.4705  -3.3361  -3.2885  -3.2612  -3.0501  -3.0250  -2.9440
    -2.8210  -2.7658  -2.6773  -2.6576  -2.4966  -2.4098  -2.3816  -2.3410
    -2.2821  -2.2033  -2.1437  -2.1006  -2.0557  -1.9692  -1.9524  -1.8322
    -1.6867  -1.5891  -1.5300  -1.4593  -1.4129  -1.4011  -1.3186  -1.2563
    -1.1523  -1.0558  -1.0410  -0.9566  -0.8172  -0.7547   0.1541   0.2423
     0.6204   0.7010   0.8994   0.9826   1.0029   1.3653   1.4512   1.5580
     1.6473   1.6803   1.7947   1.8393   1.9686   2.1719   2.4310   2.5742
     2.8180   2.9389   3.0496   3.1601

          k = 0.0000-2.5065 0.0000 ( 88770 PWs)   bands (ev):

  -103.7215-103.6551-103.4854-103.4669-103.1385-102.8275 -69.2285 -68.8673
   -68.8035 -68.7956 -64.2778 -64.2216 -64.1371 -64.0680 -64.0550 -64.0459
   -63.9768 -63.9251 -63.8798 -63.8605 -63.7584 -63.7401 -63.6392 -63.6000
   -63.4227 -63.3243 -63.2147 -63.2074 -35.7250 -35.6776 -35.5755 -35.3682
   -35.3376 -35.3184 -35.3079 -35.3071 -35.2861 -35.2612 -35.2330 -35.2273
   -11.6852 -11.6780 -11.5819 -11.4763 -11.4483 -11.4009 -11.3364 -11.2158
   -11.2019 -11.0522  -6.4619  -6.4292  -6.3056  -6.2900  -5.6215  -5.3110
    -5.1761  -5.0705  -5.0165  -4.9896  -4.3260  -4.3008  -4.2159  -4.0940
    -3.9993  -3.9281  -3.7251  -3.7219  -3.6761  -3.6748  -3.6286  -3.5241
    -3.4043  -3.3780  -3.3771  -3.3403  -3.1732  -3.1517  -3.1377  -3.0801
    -2.7577  -2.7169  -2.6240  -2.6092  -2.5127  -2.4909  -2.4130  -2.3266
    -2.3088  -2.1979  -2.1814  -2.1109  -2.0879  -2.0294  -2.0160  -1.9525
    -1.7191  -1.5982  -1.4904  -1.4729  -1.4327  -1.4109  -1.3785  -1.3090
    -1.1491  -1.1436  -1.1036  -1.0959  -0.8882  -0.8013   0.0973   0.1812
     0.6985   0.6985   0.9273   0.9283   1.1148   1.1436   1.4669   1.5987
     1.7872   1.9329   1.9576   2.0227   2.1156   2.1846   2.3637   2.3834
     2.7499   2.7704   3.0043   3.1146

          k =-0.5000 0.0000 0.0000 ( 89178 PWs)   bands (ev):

  -103.7220-103.6546-103.4870-103.4653-103.1385-102.8275 -69.2301 -68.8689
   -68.8051 -68.7973 -64.2775 -64.2203 -64.1445 -64.0552 -64.0481 -64.0450
   -63.9936 -63.9229 -63.8938 -63.8314 -63.7808 -63.7341 -63.6392 -63.6000
   -63.4230 -63.3243 -63.2148 -63.2076 -35.7313 -35.6073 -35.5855 -35.3460
   -35.3274 -35.2952 -35.2947 -35.2712 -35.2422 -35.2351 -35.2343 -35.2341
   -13.0783 -12.9170 -12.5015 -12.3519 -12.2204 -12.0708 -11.9320 -11.7450
   -11.7035 -11.6969  -6.3272  -6.1719  -5.8619  -5.8246  -5.6011  -5.4174
    -5.1884  -4.9456  -4.7604  -4.5762  -4.0672  -3.9943  -3.9703  -3.9573
    -3.8587  -3.7892  -3.7318  -3.5466  -3.5337  -3.4512  -3.3722  -3.3288
    -2.9809  -2.8570  -2.7970  -2.7410  -2.7353  -2.6481  -2.5108  -2.4006
    -2.3403  -2.2690  -2.2614  -2.1453  -2.1427  -2.0639  -1.9903  -1.9428
    -1.8453  -1.8386  -1.7374  -1.5995  -1.5329  -1.4579  -1.4489  -1.3782
    -1.3415  -1.2748  -1.2413  -1.1924  -1.1660  -1.1061  -0.8826  -0.8825
    -0.8294  -0.7879  -0.7097  -0.5240  -0.2837  -0.2065  -0.0863   0.0890
     0.5916   0.6331   0.8021   0.8844   0.9998   1.0953   1.1840   1.2389
     1.3115   1.6352   1.8479   2.0648   2.1355   2.1526   2.8139   3.0263
     3.0397   3.1111   3.1649   3.2815

          k =-0.5000 0.5013 0.0000 ( 89132 PWs)   bands (ev):

  -103.7220-103.6547-103.4869-103.4654-103.1385-102.8275 -69.2300 -68.8688
   -68.8050 -68.7971 -64.2775 -64.2204 -64.1440 -64.0552 -64.0503 -64.0451
   -63.9916 -63.9231 -63.8930 -63.8343 -63.7783 -63.7344 -63.6392 -63.5999
   -63.4230 -63.3243 -63.2148 -63.2077 -35.7307 -35.6141 -35.5845 -35.3452
   -35.3266 -35.3023 -35.2939 -35.2702 -35.2422 -35.2417 -35.2409 -35.2334
   -12.9853 -12.8240 -12.4226 -12.2802 -12.1674 -12.0163 -11.8772 -11.7003
   -11.6592 -11.6434  -6.2434  -6.0877  -5.7644  -5.7278  -5.5138  -5.3186
    -5.1053  -4.8711  -4.7227  -4.5448  -4.1426  -4.1242  -4.0463  -3.9995
    -3.8538  -3.8198  -3.7862  -3.6110  -3.5003  -3.4679  -3.3868  -3.2294
    -3.0929  -3.0405  -2.8842  -2.8721  -2.8396  -2.7947  -2.6089  -2.5447
    -2.3845  -2.3350  -2.3045  -2.2432  -2.1485  -2.0808  -2.0609  -1.9727
    -1.9543  -1.8782  -1.8388  -1.7043  -1.6385  -1.6230  -1.6164  -1.5145
    -1.4438  -1.3534  -1.2951  -1.2352  -1.0946  -1.0726  -1.0038  -0.9732
    -0.8215  -0.8074  -0.7212  -0.6495  -0.3110  -0.1163  -0.0226   0.1591
     0.4709   0.5917   0.7444   0.9375   0.9514   1.0209   1.1593   1.2129
     1.2572   1.5353   1.7901   1.8612   1.9523   2.1707   2.5131   2.6001
     2.7029   2.7948   3.0431   3.3168

          k =-0.5000 1.0026 0.0000 ( 89098 PWs)   bands (ev):

  -103.7219-103.6548-103.4865-103.4658-103.1385-102.8275 -69.2296 -68.8683
   -68.8045 -68.7967 -64.2776 -64.2207 -64.1425 -64.0557 -64.0551 -64.0453
   -63.9870 -63.9236 -63.8908 -63.8411 -63.7726 -63.7355 -63.6392 -63.6000
   -63.4231 -63.3243 -63.2148 -63.2077 -35.7292 -35.6317 -35.5820 -35.3431
   -35.3243 -35.3205 -35.2918 -35.2679 -35.2604 -35.2594 -35.2391 -35.2317
   -12.7197 -12.5588 -12.2047 -12.0959 -12.0111 -11.8586 -11.7306 -11.5755
   -11.5572 -11.4796  -6.0337  -5.8761  -5.5198  -5.4909  -5.2855  -5.0738
    -4.9595  -4.8819  -4.5970  -4.5786  -4.3758  -4.3181  -4.2441  -4.2245
    -3.9860  -3.8638  -3.8222  -3.7559  -3.7026  -3.6027  -3.5048  -3.4268
    -3.3279  -3.2271  -3.1376  -3.1163  -3.0004  -2.8962  -2.8204  -2.7046
    -2.6634  -2.5902  -2.5349  -2.4735  -2.3849  -2.2968  -2.2504  -2.1376
    -2.0554  -2.0115  -1.9575  -1.8265  -1.7771  -1.7271  -1.6840  -1.6326
    -1.5161  -1.4479  -1.3677  -1.3553  -1.3226  -1.1751  -1.1069  -1.0586
    -0.9787  -0.9283  -0.7034  -0.6214  -0.5048  -0.3485   0.2183   0.3486
     0.5454   0.6841   0.7586   0.8402   0.8696   1.0391   1.0935   1.1680
     1.1891   1.3807   1.6006   1.7124   1.9453   2.0878   2.2091   2.3346
     2.3881   2.5276   3.3457   3.6664

          k =-0.5000 1.5039 0.0000 ( 89042 PWs)   bands (ev):

  -103.7217-103.6549-103.4860-103.4663-103.1385-102.8275 -69.2291 -68.8678
   -68.8040 -68.7962 -64.2778 -64.2212 -64.1403 -64.0618 -64.0551 -64.0456
   -63.9820 -63.9243 -63.8871 -63.8495 -63.7660 -63.7372 -63.6393 -63.6000
   -63.4231 -63.3243 -63.2148 -63.2077 -35.7272 -35.6534 -35.5790 -35.3436
   -35.3399 -35.3216 -35.2893 -35.2827 -35.2821 -35.2646 -35.2362 -35.2296
   -12.3272 -12.1690 -11.9201 -11.8758 -11.7746 -11.6230 -11.5411 -11.4232
   -11.4042 -11.2673  -5.9181  -5.7743  -5.5542  -5.4378  -5.2760  -5.1891
    -5.1102  -4.9375  -4.7680  -4.6061  -4.5851  -4.3522  -4.2765  -4.1801
    -4.1533  -4.0508  -4.0359  -3.9907  -3.8277  -3.7335  -3.6743  -3.5992
    -3.4148  -3.3714  -3.2746  -3.1599  -3.1404  -3.0439  -2.9932  -2.8755
    -2.7547  -2.7395  -2.6930  -2.6443  -2.5391  -2.4057  -2.3051  -2.2433
    -2.1862  -2.1444  -2.1128  -2.0154  -1.8645  -1.8208  -1.7758  -1.6900
    -1.6168  -1.5575  -1.4800  -1.4381  -1.3836  -1.3345  -1.2147  -1.1524
    -1.0729  -0.9781  -0.8848  -0.7941  -0.7022  -0.5692   0.3273   0.3588
     0.6516   0.6921   0.8509   0.9411   1.0567   1.1085   1.1367   1.1991
     1.3616   1.5056   1.5872   1.6671   1.9815   2.1871   2.3797   2.4526
     2.5661   2.6464   3.3953   3.4992

          k =-0.5000 2.0052 0.0000 ( 88916 PWs)   bands (ev):

  -103.7216-103.6550-103.4855-103.4667-103.1385-102.8275 -69.2287 -68.8674
   -68.8036 -68.7958 -64.2779 -64.2216 -64.1381 -64.0664 -64.0551 -64.0460
   -63.9781 -63.9249 -63.8825 -63.8571 -63.7606 -63.7391 -63.6393 -63.5999
   -63.4229 -63.3243 -63.2148 -63.2076 -35.7256 -35.6709 -35.5765 -35.3613
   -35.3383 -35.3193 -35.3010 -35.3002 -35.2869 -35.2622 -35.2339 -35.2279
   -11.9096 -11.7762 -11.7066 -11.6511 -11.5454 -11.4272 -11.3786 -11.2807
   -11.2621 -11.1037  -6.2594  -6.2130  -6.0310  -6.0245  -5.4513  -5.2170
    -5.1581  -5.0604  -4.8924  -4.7646  -4.5780  -4.4376  -4.3026  -4.0803
    -4.0320  -3.9712  -3.8414  -3.7866  -3.7382  -3.7150  -3.6325  -3.5765
    -3.4885  -3.4284  -3.3518  -3.2661  -3.2050  -3.0754  -3.0430  -2.9939
    -2.7920  -2.7292  -2.6544  -2.6350  -2.6061  -2.4478  -2.3643  -2.3535
    -2.2829  -2.2112  -2.1797  -2.1253  -1.9891  -1.9658  -1.8947  -1.8425
    -1.6956  -1.5841  -1.5296  -1.4798  -1.4469  -1.3986  -1.2657  -1.2124
    -1.2034  -1.1295  -1.0026  -0.9512  -0.8050  -0.7741   0.1834   0.2202
     0.6693   0.7664   0.9173   0.9432   1.0928   1.2224   1.4331   1.5561
     1.6148   1.6992   1.7964   1.8619   1.9419   2.0991   2.5837   2.6094
     2.7244   2.7902   3.0697   3.1823

          k =-0.5000-2.5065 0.0000 ( 88788 PWs)   bands (ev):

  -103.7215-103.6551-103.4854-103.4669-103.1385-102.8275 -69.2285 -68.8673
   -68.8035 -68.7956 -64.2780 -64.2217 -64.1371 -64.0679 -64.0551 -64.0461
   -63.9767 -63.9251 -63.8798 -63.8604 -63.7584 -63.7401 -63.6393 -63.5999
   -63.4227 -63.3242 -63.2149 -63.2073 -35.7250 -35.6775 -35.5755 -35.3682
   -35.3376 -35.3184 -35.3079 -35.3071 -35.2861 -35.2612 -35.2330 -35.2273
   -11.6852 -11.6780 -11.5818 -11.4769 -11.4482 -11.3976 -11.3402 -11.2164
   -11.2008 -11.0517  -6.4910  -6.4530  -6.2636  -6.2589  -5.6344  -5.2845
    -5.2284  -5.0566  -5.0077  -5.0003  -4.3494  -4.2880  -4.2376  -4.0353
    -3.9741  -3.9174  -3.8186  -3.7217  -3.6940  -3.6652  -3.6171  -3.5143
    -3.4699  -3.4316  -3.3677  -3.3633  -3.1112  -3.0594  -3.0570  -2.9541
    -2.8269  -2.7733  -2.6291  -2.6006  -2.5411  -2.5363  -2.4320  -2.3357
    -2.3131  -2.2621  -2.1635  -2.1036  -2.0660  -2.0048  -1.9900  -1.9341
    -1.7274  -1.6055  -1.5054  -1.4910  -1.4605  -1.4015  -1.3395  -1.2965
    -1.2175  -1.1528  -1.0967  -1.0618  -0.8850  -0.7965   0.1036   0.1859
     0.7323   0.7358   0.9326   0.9394   1.0695   1.1062   1.4631   1.6373
     1.7517   1.8817   1.9143   2.0500   2.1452   2.1872   2.4294   2.5202
     2.5349   2.6702   3.1845   3.2094

     the Fermi energy is    -0.1002 ev

!    total energy              =   -9109.80979745 Ry
     total all-electron energy =     -9109.809797 Ry
     estimated scf accuracy    <          9.8E-09 Ry
     smearing contrib. (-TS)   =      -0.00028169 Ry
     internal energy E=F+TS    =   -9109.80951575 Ry

     The total energy is F=E-TS. E is the sum of the following terms:
     one-electron contribution =  -15954.71603729 Ry
     hartree contribution      =    7834.53800062 Ry
     xc contribution           =    -364.67577641 Ry
     ewald contribution        =    5642.71202518 Ry
     one-center paw contrib.   =   -6267.66772785 Ry

     convergence has been achieved in  28 iterations

     negative rho (up, down):  6.501E-02 0.000E+00

     Forces acting on atoms (cartesian axes, Ry/au):

     atom    1 type  1   force =     0.03372561    0.00000000    0.00006174
     atom    2 type  1   force =    -0.00263692    0.00000000   -0.00111338
     atom    3 type  1   force =    -0.01945382    0.00000000    0.00174739
     atom    4 type  1   force =    -0.01042145    0.00000000    0.00340613
     atom    5 type  2   force =     0.01060104    0.00000000    0.00143118
     atom    6 type  2   force =    -0.00084665    0.00000000   -0.00168097
     atom    7 type  2   force =     0.00051890    0.00000000   -0.00020920
     atom    8 type  2   force =     0.01322638    0.00000000   -0.00318000
     atom    9 type  2   force =     0.00298171    0.00000000    0.00129148
     atom   10 type  2   force =    -0.01565456    0.00000000   -0.00709546
     atom   11 type  3   force =     0.01383877    0.00000000   -0.00266011
     atom   12 type  3   force =     0.00039529    0.00000000    0.00020600
     atom   13 type  3   force =    -0.00027303    0.00000000   -0.00069706
     atom   14 type  3   force =    -0.01018848    0.00000000    0.00424444
     atom   15 type  3   force =     0.00294778    0.00000000   -0.00066519
     atom   16 type  3   force =    -0.00263288    0.00000000   -0.00021631
     atom   17 type  3   force =    -0.00117467    0.00000000   -0.00019973
     atom   18 type  3   force =     0.02605664    0.00000000   -0.02254400
     atom   19 type  3   force =    -0.04398908    0.00000000    0.02846623
     atom   20 type  3   force =     0.00297942    0.00000000   -0.00059319

     Total force =     0.080852     Total SCF correction =     0.000384


     Computing stress (Cartesian axis) and pressure


     negative rho (up, down):  6.501E-02 0.000E+00
          total   stress  (Ry/bohr**3)                   (kbar)     P=       -6.16
  -0.00005520   0.00000000   0.00001200           -8.12        0.00        1.76
   0.00000000  -0.00001942   0.00000000            0.00       -2.86        0.00
   0.00001200   0.00000000  -0.00005109            1.76        0.00       -7.52


     BFGS Geometry Optimization
     Energy error            =      0.0E+00 Ry
     Gradient error          =      4.4E-02 Ry/Bohr

     number of scf cycles    =   1
     number of bfgs steps    =   0

     energy             new  =   -9109.8097974459 Ry

     new trust radius        =       0.0523962290 bohr
     new conv_thr            =       0.0000000100 Ry


ATOMIC_POSITIONS (angstrom)
Ta              15.4096876492        0.9149235643       12.4438729031
Ta               6.5701551163        2.7447696811       12.5914071595
Ta               2.2548610965        0.9149235643       12.4445906423
Ta              11.0799385549        2.7447696811       12.5939589353
Ni              12.8700179862        0.9149235643       11.7624469454
Ni               4.0436520970        2.7447696811       13.2732544183
Ni               4.7927413143        0.9149235643       11.7613122544
Ni              13.6197597139        2.7447696811       13.2727182227
Ni               8.8299245164        0.9149235643       12.3688890197
Ni              -0.0002071351        2.7447696811       12.6638550554
Te              14.2203655368        2.7447696811       10.5338490839
Te               5.3929310356        0.9149235643       14.5006811139
Te              10.5952886347        0.9149235643       10.5189650053
Te               1.7697585711        2.7447696811       14.5187410188
Te               3.4452485892        2.7447696811       10.5346815403
Te              12.2625962774        0.9149235643       14.5006780821
Te               7.0609968127        0.9149235643       10.5190655798
Te              15.8956904858        2.7447696811       14.5047373574
Te              -0.0149790932        0.9149235643       10.8526827440
Te               8.8301346037        2.7447696811       14.1978639181



     Writing config-only to output data dir /ddn/data/physics/eamoujaes/2D-Ta2Ni3Te5/ELASTIC/OUT/ta2ni3te5.save/ :
     XML data file
     NEW-OLD atomic charge density approx. for the potential

     negative rho (up, down):  6.508E-02 0.000E+00

     total cpu time spent up to now is     1206.4 secs

     Self-consistent Calculation

     iteration #  1     ecut=    60.00 Ry     beta= 0.20
     Davidson diagonalization with overlap
     ethr =  1.00E-06,  avg # of iterations =  7.1

     negative rho (up, down):  6.506E-02 0.000E+00

     total cpu time spent up to now is     1246.7 secs

     total energy              =   -9109.81536495 Ry
     estimated scf accuracy    <       0.00206690 Ry

     iteration #  2     ecut=    60.00 Ry     beta= 0.20
     Davidson diagonalization with overlap
     ethr =  9.40E-07,  avg # of iterations = 10.4

     negative rho (up, down):  6.506E-02 0.000E+00

     total cpu time spent up to now is     1285.6 secs

     total energy              =   -9109.81487647 Ry
     estimated scf accuracy    <       0.03034974 Ry

     iteration #  3     ecut=    60.00 Ry     beta= 0.20
     Davidson diagonalization with overlap
     c_bands:  1 eigenvalues not converged
     ethr =  9.40E-07,  avg # of iterations =  6.0

     negative rho (up, down):  6.506E-02 0.000E+00

     total cpu time spent up to now is     1323.7 secs

     total energy              =   -9109.81599106 Ry
     estimated scf accuracy    <       0.00057048 Ry

     iteration #  4     ecut=    60.00 Ry     beta= 0.20
     Davidson diagonalization with overlap
     ethr =  2.59E-07,  avg # of iterations =  1.3

     negative rho (up, down):  6.506E-02 0.000E+00

     total cpu time spent up to now is     1360.4 secs

     total energy              =   -9109.81602757 Ry
     estimated scf accuracy    <       0.00014700 Ry

     iteration #  5     ecut=    60.00 Ry     beta= 0.20
     Davidson diagonalization with overlap
     ethr =  6.68E-08,  avg # of iterations =  2.2

     negative rho (up, down):  6.505E-02 0.000E+00

     total cpu time spent up to now is     1397.4 secs

     total energy              =   -9109.81603140 Ry
     estimated scf accuracy    <       0.00018670 Ry

     iteration #  6     ecut=    60.00 Ry     beta= 0.20
     Davidson diagonalization with overlap
     ethr =  6.68E-08,  avg # of iterations =  1.1

     negative rho (up, down):  6.504E-02 0.000E+00

     total cpu time spent up to now is     1434.4 secs

     total energy              =   -9109.81604115 Ry
     estimated scf accuracy    <       0.00005381 Ry

     iteration #  7     ecut=    60.00 Ry     beta= 0.20
     Davidson diagonalization with overlap
     ethr =  2.45E-08,  avg # of iterations =  1.5

     negative rho (up, down):  6.503E-02 0.000E+00

     total cpu time spent up to now is     1471.8 secs

     total energy              =   -9109.81604555 Ry
     estimated scf accuracy    <       0.00001354 Ry

     iteration #  8     ecut=    60.00 Ry     beta= 0.20
     Davidson diagonalization with overlap
     ethr =  6.15E-09,  avg # of iterations =  2.0

     negative rho (up, down):  6.503E-02 0.000E+00

     total cpu time spent up to now is     1509.0 secs

     total energy              =   -9109.81604724 Ry
     estimated scf accuracy    <       0.00001133 Ry

     iteration #  9     ecut=    60.00 Ry     beta= 0.20
     Davidson diagonalization with overlap
     ethr =  5.15E-09,  avg # of iterations =  1.1

     negative rho (up, down):  6.502E-02 0.000E+00

     total cpu time spent up to now is     1546.2 secs

     total energy              =   -9109.81604897 Ry
     estimated scf accuracy    <       0.00000376 Ry

     iteration # 10     ecut=    60.00 Ry     beta= 0.20
     Davidson diagonalization with overlap
     ethr =  1.71E-09,  avg # of iterations =  2.0

     negative rho (up, down):  6.502E-02 0.000E+00

     total cpu time spent up to now is     1583.6 secs

     total energy              =   -9109.81604962 Ry
     estimated scf accuracy    <       0.00000172 Ry

     iteration # 11     ecut=    60.00 Ry     beta= 0.20
     Davidson diagonalization with overlap
     ethr =  7.84E-10,  avg # of iterations =  1.8

     negative rho (up, down):  6.502E-02 0.000E+00

     total cpu time spent up to now is     1620.9 secs

     total energy              =   -9109.81604990 Ry
     estimated scf accuracy    <       0.00000036 Ry

     iteration # 12     ecut=    60.00 Ry     beta= 0.20
     Davidson diagonalization with overlap
     ethr =  1.63E-10,  avg # of iterations =  4.3

     negative rho (up, down):  6.502E-02 0.000E+00

     total cpu time spent up to now is     1659.0 secs

     total energy              =   -9109.81604998 Ry
     estimated scf accuracy    <       0.00000027 Ry

     iteration # 13     ecut=    60.00 Ry     beta= 0.20
     Davidson diagonalization with overlap
     ethr =  1.23E-10,  avg # of iterations =  1.3

     negative rho (up, down):  6.502E-02 0.000E+00

     total cpu time spent up to now is     1696.3 secs

     total energy              =   -9109.81605007 Ry
     estimated scf accuracy    <       0.00000016 Ry

     iteration # 14     ecut=    60.00 Ry     beta= 0.20
     Davidson diagonalization with overlap
     ethr =  7.16E-11,  avg # of iterations =  2.0

     negative rho (up, down):  6.502E-02 0.000E+00

     total cpu time spent up to now is     1733.7 secs

     total energy              =   -9109.81605009 Ry
     estimated scf accuracy    <       0.00000032 Ry

     iteration # 15     ecut=    60.00 Ry     beta= 0.20
     Davidson diagonalization with overlap
     ethr =  7.16E-11,  avg # of iterations =  1.0

     negative rho (up, down):  6.502E-02 0.000E+00

     total cpu time spent up to now is     1771.0 secs

     total energy              =   -9109.81605010 Ry
     estimated scf accuracy    <       0.00000001 Ry

     iteration # 16     ecut=    60.00 Ry     beta= 0.20
     Davidson diagonalization with overlap
     ethr =  5.99E-12,  avg # of iterations =  5.0

     negative rho (up, down):  6.502E-02 0.000E+00

     total cpu time spent up to now is     1809.3 secs

     total energy              =   -9109.81605011 Ry
     estimated scf accuracy    <       0.00000001 Ry

     iteration # 17     ecut=    60.00 Ry     beta= 0.20
     Davidson diagonalization with overlap
     ethr =  5.41E-12,  avg # of iterations =  1.5

     negative rho (up, down):  6.502E-02 0.000E+00

     total cpu time spent up to now is     1846.2 secs

     End of self-consistent calculation

          k = 0.0000 0.0000 0.0000 ( 89197 PWs)   bands (ev):

  -103.6918-103.6258-103.4870-103.4646-103.1419-102.8526 -69.2185 -68.8689
   -68.8153 -68.8088 -64.2484 -64.1900 -64.1142 -64.0533 -64.0438 -64.0190
   -63.9627 -63.8952 -63.8948 -63.8313 -63.7804 -63.7338 -63.6428 -63.6033
   -63.4264 -63.3490 -63.2390 -63.2334 -35.7161 -35.5980 -35.5755 -35.3446
   -35.3268 -35.2986 -35.2939 -35.2875 -35.2521 -35.2473 -35.2446 -35.2383
   -13.0824 -12.8685 -12.5691 -12.3159 -12.2140 -11.9895 -11.9418 -11.8664
   -11.7177 -11.6559  -6.3275  -6.1332  -5.8620  -5.7613  -5.6109  -5.4861
    -5.3139  -4.8266  -4.7490  -4.3566  -4.2380  -4.0541  -3.9484  -3.9340
    -3.8958  -3.8015  -3.7853  -3.5523  -3.4992  -3.3945  -3.3670  -3.1802
    -2.9610  -2.8354  -2.7706  -2.7560  -2.7491  -2.6162  -2.4886  -2.4020
    -2.3939  -2.3664  -2.2485  -2.1557  -2.1432  -2.0488  -1.9736  -1.9125
    -1.8393  -1.8341  -1.7676  -1.5886  -1.5249  -1.4779  -1.4460  -1.3761
    -1.3666  -1.2766  -1.2294  -1.1882  -1.1578  -1.0990  -0.9792  -0.8709
    -0.8099  -0.7720  -0.6720  -0.5468  -0.3197  -0.2024  -0.0759   0.1482
     0.4709   0.5524   0.9024   0.9558   1.0406   1.1031   1.2442   1.2819
     1.3095   1.6482   1.6959   2.0377   2.1582   2.2564   2.7519   2.9505
     3.0569   3.1780   3.2430   3.2457

          k = 0.0000 0.5013 0.0000 ( 89137 PWs)   bands (ev):

  -103.6917-103.6259-103.4869-103.4647-103.1419-102.8526 -69.2184 -68.8687
   -68.8152 -68.8086 -64.2484 -64.1901 -64.1136 -64.0533 -64.0438 -64.0212
   -63.9608 -63.8950 -63.8945 -63.8341 -63.7780 -63.7341 -63.6427 -63.6032
   -63.4264 -63.3489 -63.2390 -63.2334 -35.7155 -35.6048 -35.5745 -35.3438
   -35.3260 -35.3009 -35.2978 -35.2866 -35.2544 -35.2514 -35.2453 -35.2438
   -12.9888 -12.7765 -12.4864 -12.2522 -12.1583 -11.9325 -11.8877 -11.8177
   -11.6614 -11.6181  -6.2433  -6.0504  -5.7648  -5.6640  -5.5309  -5.3823
    -5.2292  -4.7572  -4.6845  -4.3422  -4.2311  -4.1098  -4.0588  -4.0295
    -3.9610  -3.9114  -3.7895  -3.5430  -3.4769  -3.4023  -3.3882  -3.1337
    -3.0955  -3.0021  -2.8846  -2.8582  -2.8195  -2.7845  -2.6964  -2.4855
    -2.4043  -2.3518  -2.3306  -2.2719  -2.1234  -2.0688  -2.0285  -1.9873
    -1.9685  -1.8718  -1.7914  -1.7386  -1.6570  -1.6542  -1.5622  -1.5090
    -1.4328  -1.3974  -1.2935  -1.1970  -1.1736  -1.0823  -1.0628  -0.8652
    -0.8516  -0.7871  -0.7046  -0.6507  -0.3195  -0.1237  -0.0855   0.2118
     0.4337   0.5375   0.7317   0.9192   1.0031   1.0359   1.1584   1.2995
     1.3311   1.5631   1.7411   1.8322   1.9496   2.2720   2.4581   2.6156
     2.6947   2.8140   2.9955   3.2209

          k = 0.0000 1.0026 0.0000 ( 89121 PWs)   bands (ev):

  -103.6916-103.6260-103.4865-103.4651-103.1419-102.8526 -69.2180 -68.8683
   -68.8148 -68.8082 -64.2486 -64.1905 -64.1121 -64.0533 -64.0442 -64.0266
   -63.9561 -63.8956 -63.8923 -63.8409 -63.7722 -63.7352 -63.6428 -63.6032
   -63.4265 -63.3489 -63.2390 -63.2335 -35.7139 -35.6224 -35.5720 -35.3416
   -35.3239 -35.3191 -35.2956 -35.2843 -35.2724 -35.2636 -35.2493 -35.2418
   -12.7214 -12.5148 -12.2545 -12.0900 -11.9964 -11.7784 -11.7400 -11.6767
   -11.5247 -11.4983  -6.0345  -5.8409  -5.5195  -5.4544  -5.3096  -5.1245
    -5.0176  -4.7830  -4.5850  -4.4659  -4.3496  -4.2967  -4.2369  -4.1630
    -4.1334  -4.0195  -3.8745  -3.7295  -3.6479  -3.5613  -3.4966  -3.4171
    -3.3303  -3.1974  -3.1354  -3.0246  -2.9889  -2.9164  -2.8392  -2.7062
    -2.6251  -2.5759  -2.5415  -2.4860  -2.3842  -2.2861  -2.2320  -2.1580
    -2.1000  -2.0141  -1.9266  -1.8169  -1.7868  -1.7314  -1.6496  -1.6140
    -1.5743  -1.4940  -1.4344  -1.3258  -1.2000  -1.1427  -1.0882  -1.0159
    -0.9878  -0.9611  -0.7735  -0.6600  -0.5128  -0.3731   0.1829   0.4524
     0.4710   0.6804   0.7278   0.8338   0.8577   0.9880   1.0427   1.1889
     1.4052   1.4678   1.5291   1.7688   1.9594   2.0252   2.2058   2.3046
     2.4278   2.5634   3.3241   3.6177

          k = 0.0000 1.5039 0.0000 ( 89069 PWs)   bands (ev):

  -103.6914-103.6261-103.4860-103.4656-103.1419-102.8526 -69.2175 -68.8678
   -68.8143 -68.8077 -64.2487 -64.1908 -64.1099 -64.0532 -64.0445 -64.0327
   -63.9510 -63.8964 -63.8888 -63.8491 -63.7656 -63.7370 -63.6428 -63.6033
   -63.4265 -63.3490 -63.2390 -63.2335 -35.7120 -35.6442 -35.5689 -35.3421
   -35.3384 -35.3212 -35.2951 -35.2931 -35.2859 -35.2810 -35.2469 -35.2393
   -12.3250 -12.1329 -11.9305 -11.8893 -11.7673 -11.6074 -11.5075 -11.4783
   -11.3941 -11.2957  -5.9167  -5.7358  -5.5704  -5.4700  -5.2427  -5.1507
    -5.0218  -4.9724  -4.7698  -4.6166  -4.5571  -4.3276  -4.2905  -4.2561
    -4.2111  -4.1447  -3.9863  -3.8834  -3.8120  -3.6735  -3.6699  -3.6095
    -3.5855  -3.3407  -3.2052  -3.1800  -3.1336  -2.9809  -2.9140  -2.8672
    -2.8271  -2.7955  -2.6633  -2.5813  -2.5539  -2.3991  -2.3093  -2.2519
    -2.1767  -2.1678  -2.0568  -1.9644  -1.9250  -1.8218  -1.7709  -1.7013
    -1.6171  -1.5644  -1.5010  -1.4141  -1.3624  -1.2889  -1.2441  -1.1543
    -1.0747  -1.0137  -0.8816  -0.7607  -0.7307  -0.5824   0.3234   0.4060
     0.5312   0.6111   0.8476   0.9146   1.0957   1.1440   1.1543   1.2610
     1.4131   1.4747   1.5854   1.7817   1.8894   2.2212   2.2950   2.4428
     2.6667   2.7167   3.3092   3.4587

          k = 0.0000 2.0052 0.0000 ( 88887 PWs)   bands (ev):

  -103.6913-103.6263-103.4856-103.4659-103.1419-102.8526 -69.2171 -68.8674
   -68.8139 -68.8073 -64.2488 -64.1911 -64.1077 -64.0531 -64.0447 -64.0373
   -63.9471 -63.8970 -63.8845 -63.8563 -63.7601 -63.7389 -63.6427 -63.6032
   -63.4264 -63.3489 -63.2390 -63.2334 -35.7104 -35.6617 -35.5664 -35.3598
   -35.3367 -35.3190 -35.3130 -35.3043 -35.2907 -35.2787 -35.2449 -35.2372
   -11.9001 -11.7567 -11.6978 -11.6429 -11.5427 -11.4563 -11.3589 -11.2814
   -11.2708 -11.1350  -6.2149  -6.1778  -6.0621  -6.0558  -5.4315  -5.1987
    -5.1309  -5.0719  -4.8892  -4.8100  -4.5375  -4.4409  -4.3224  -4.0740
    -3.9928  -3.9215  -3.8390  -3.7744  -3.7488  -3.6972  -3.6536  -3.5708
    -3.5239  -3.4724  -3.3347  -3.2887  -3.2561  -3.0448  -3.0225  -2.9529
    -2.8266  -2.7679  -2.6809  -2.6415  -2.4981  -2.4038  -2.3684  -2.3335
    -2.2828  -2.1955  -2.1408  -2.0918  -2.0492  -1.9529  -1.9349  -1.8310
    -1.6807  -1.5888  -1.5275  -1.4761  -1.4123  -1.3875  -1.3254  -1.2764
    -1.1543  -1.0546  -1.0411  -0.9620  -0.8272  -0.7744   0.1619   0.2480
     0.6222   0.7079   0.8988   0.9862   1.0072   1.3634   1.4488   1.5588
     1.6467   1.6803   1.7897   1.8344   1.9671   2.1724   2.4337   2.5836
     2.8155   2.9528   3.0498   3.1608

          k = 0.0000-2.5065 0.0000 ( 88770 PWs)   bands (ev):

  -103.6912-103.6263-103.4855-103.4661-103.1419-102.8526 -69.2169 -68.8673
   -68.8137 -68.8071 -64.2487 -64.1912 -64.1067 -64.0530 -64.0447 -64.0389
   -63.9457 -63.8973 -63.8822 -63.8594 -63.7579 -63.7400 -63.6427 -63.6032
   -63.4262 -63.3489 -63.2389 -63.2331 -35.7097 -35.6684 -35.5655 -35.3667
   -35.3359 -35.3198 -35.3181 -35.3111 -35.2900 -35.2778 -35.2442 -35.2364
   -11.6810 -11.6532 -11.5634 -11.4742 -11.4490 -11.4058 -11.3420 -11.2135
   -11.2102 -11.0857  -6.4414  -6.4124  -6.3031  -6.2876  -5.6235  -5.3266
    -5.1757  -5.0672  -5.0149  -4.9898  -4.3064  -4.2902  -4.2007  -4.0983
    -3.9919  -3.9150  -3.7223  -3.7125  -3.6718  -3.6701  -3.6313  -3.5352
    -3.3921  -3.3787  -3.3731  -3.3370  -3.1846  -3.1558  -3.1437  -3.0831
    -2.7568  -2.7170  -2.6223  -2.6131  -2.4903  -2.4709  -2.4078  -2.3272
    -2.3147  -2.1945  -2.1678  -2.0961  -2.0749  -2.0174  -2.0117  -1.9499
    -1.7103  -1.5882  -1.4930  -1.4841  -1.4421  -1.4058  -1.3765  -1.3108
    -1.1651  -1.1627  -1.1119  -1.1020  -0.8889  -0.8125   0.1126   0.1824
     0.6938   0.7095   0.9300   0.9368   1.1110   1.1390   1.4700   1.5959
     1.7879   1.9298   1.9550   2.0244   2.1056   2.1858   2.3718   2.3839
     2.7479   2.7772   3.0038   3.1311

          k =-0.5000 0.0000 0.0000 ( 89178 PWs)   bands (ev):

  -103.6918-103.6258-103.4870-103.4646-103.1419-102.8526 -69.2185 -68.8689
   -68.8153 -68.8088 -64.2484 -64.1899 -64.1142 -64.0533 -64.0437 -64.0190
   -63.9628 -63.8952 -63.8948 -63.8313 -63.7805 -63.7337 -63.6427 -63.6033
   -63.4264 -63.3490 -63.2390 -63.2334 -35.7161 -35.5980 -35.5755 -35.3446
   -35.3268 -35.2986 -35.2939 -35.2875 -35.2521 -35.2473 -35.2446 -35.2383
   -13.0670 -12.9118 -12.4929 -12.3446 -12.2173 -12.0770 -11.9320 -11.7504
   -11.7305 -11.6976  -6.3100  -6.1671  -5.8558  -5.8253  -5.5964  -5.4154
    -5.1876  -4.9532  -4.7457  -4.5757  -4.0540  -3.9936  -3.9452  -3.9338
    -3.8499  -3.7857  -3.7322  -3.5627  -3.4987  -3.4654  -3.3663  -3.3293
    -2.9640  -2.8384  -2.7947  -2.7397  -2.7388  -2.6435  -2.4826  -2.3973
    -2.3501  -2.2631  -2.2538  -2.1671  -2.1363  -2.0600  -1.9898  -1.9455
    -1.8607  -1.8459  -1.7459  -1.5722  -1.5420  -1.4461  -1.4375  -1.3794
    -1.3413  -1.2591  -1.2440  -1.1990  -1.1766  -1.1092  -0.8811  -0.8809
    -0.8364  -0.7986  -0.7041  -0.5285  -0.2850  -0.2044  -0.0915   0.0852
     0.6080   0.6448   0.7993   0.8746   0.9909   1.0971   1.1738   1.2315
     1.3143   1.6367   1.8521   2.0623   2.1369   2.1556   2.8616   3.0281
     3.0525   3.1078   3.1613   3.2809

          k =-0.5000 0.5013 0.0000 ( 89132 PWs)   bands (ev):

  -103.6917-103.6259-103.4869-103.4647-103.1419-102.8526 -69.2184 -68.8687
   -68.8152 -68.8086 -64.2484 -64.1900 -64.1136 -64.0532 -64.0438 -64.0212
   -63.9607 -63.8950 -63.8945 -63.8341 -63.7779 -63.7341 -63.6427 -63.6032
   -63.4264 -63.3489 -63.2389 -63.2334 -35.7155 -35.6048 -35.5745 -35.3438
   -35.3260 -35.3009 -35.2978 -35.2866 -35.2544 -35.2514 -35.2453 -35.2438
   -12.9740 -12.8189 -12.4136 -12.2715 -12.1652 -12.0232 -11.8772 -11.7055
   -11.6708 -11.6596  -6.2257  -6.0831  -5.7582  -5.7282  -5.5097  -5.3164
    -5.1045  -4.8793  -4.7064  -4.5419  -4.1268  -4.1053  -4.0337  -3.9880
    -3.8440  -3.8090  -3.7879  -3.6063  -3.5101  -3.4765  -3.3750  -3.2264
    -3.0903  -3.0073  -2.8868  -2.8727  -2.8415  -2.8001  -2.6003  -2.5292
    -2.3795  -2.3349  -2.2961  -2.2500  -2.1423  -2.0863  -2.0606  -1.9779
    -1.9565  -1.8845  -1.8419  -1.7010  -1.6450  -1.6294  -1.5900  -1.5143
    -1.4428  -1.3465  -1.2919  -1.2338  -1.0952  -1.0752  -0.9984  -0.9743
    -0.8327  -0.8069  -0.7291  -0.6544  -0.3127  -0.1199  -0.0193   0.1523
     0.4770   0.5921   0.7571   0.9329   0.9534   1.0152   1.1485   1.2092
     1.2666   1.5352   1.7931   1.8611   1.9479   2.1738   2.5193   2.6121
     2.6984   2.7878   3.0841   3.3188

          k =-0.5000 1.0026 0.0000 ( 89098 PWs)   bands (ev):

  -103.6916-103.6260-103.4865-103.4651-103.1419-102.8526 -69.2180 -68.8683
   -68.8148 -68.8082 -64.2485 -64.1904 -64.1121 -64.0532 -64.0441 -64.0266
   -63.9561 -63.8956 -63.8923 -63.8409 -63.7722 -63.7352 -63.6427 -63.6032
   -63.4265 -63.3490 -63.2389 -63.2335 -35.7139 -35.6224 -35.5720 -35.3416
   -35.3239 -35.3191 -35.2956 -35.2843 -35.2724 -35.2636 -35.2493 -35.2418
   -12.7083 -12.5538 -12.1941 -12.0844 -12.0106 -11.8677 -11.7310 -11.5810
   -11.5570 -11.5072  -6.0150  -5.8718  -5.5122  -5.4901  -5.2833  -5.0698
    -4.9566  -4.8786  -4.5849  -4.5707  -4.3516  -4.3087  -4.2382  -4.2186
    -3.9734  -3.8623  -3.8208  -3.7573  -3.7056  -3.5914  -3.5200  -3.4237
    -3.3319  -3.2324  -3.1412  -3.1086  -2.9986  -2.8899  -2.8138  -2.6992
    -2.6619  -2.5770  -2.5358  -2.4751  -2.3745  -2.2887  -2.2525  -2.1407
    -2.0519  -2.0154  -1.9661  -1.8182  -1.7733  -1.7181  -1.6822  -1.6120
    -1.5286  -1.4463  -1.3717  -1.3544  -1.3103  -1.1754  -1.1045  -1.0618
    -0.9903  -0.9344  -0.7038  -0.6247  -0.5062  -0.3603   0.2204   0.3459
     0.5492   0.6806   0.7736   0.8382   0.8683   1.0420   1.0939   1.1623
     1.1935   1.3792   1.6052   1.7115   1.9442   2.0938   2.2077   2.3386
     2.3883   2.5206   3.3916   3.6699

          k =-0.5000 1.5039 0.0000 ( 89042 PWs)   bands (ev):

  -103.6914-103.6261-103.4860-103.4656-103.1419-102.8526 -69.2175 -68.8678
   -68.8143 -68.8077 -64.2487 -64.1908 -64.1099 -64.0532 -64.0444 -64.0327
   -63.9510 -63.8964 -63.8888 -63.8491 -63.7656 -63.7370 -63.6427 -63.6032
   -63.4265 -63.3490 -63.2390 -63.2335 -35.7120 -35.6442 -35.5689 -35.3421
   -35.3384 -35.3212 -35.2951 -35.2931 -35.2859 -35.2810 -35.2469 -35.2393
   -12.3156 -12.1638 -11.9039 -11.8692 -11.7721 -11.6318 -11.5445 -11.4225
   -11.4093 -11.2954  -5.8997  -5.7689  -5.5320  -5.4341  -5.2690  -5.1900
    -5.1085  -4.9314  -4.7577  -4.6081  -4.5782  -4.3530  -4.2733  -4.1765
    -4.1471  -4.0516  -4.0298  -3.9893  -3.8223  -3.7385  -3.6865  -3.5959
    -3.3980  -3.3696  -3.2711  -3.1615  -3.1507  -3.0370  -2.9819  -2.8749
    -2.7586  -2.7330  -2.6936  -2.6495  -2.5252  -2.3991  -2.3045  -2.2387
    -2.1780  -2.1507  -2.1071  -2.0111  -1.8588  -1.7993  -1.7605  -1.6925
    -1.6135  -1.5563  -1.4942  -1.4422  -1.3798  -1.3208  -1.2200  -1.1623
    -1.0750  -0.9806  -0.8826  -0.8013  -0.7077  -0.5866   0.3289   0.3662
     0.6677   0.6874   0.8475   0.9387   1.0525   1.1140   1.1358   1.1992
     1.3612   1.5094   1.5903   1.6650   1.9803   2.1897   2.3849   2.4544
     2.5643   2.6389   3.4206   3.5137

          k =-0.5000 2.0052 0.0000 ( 88916 PWs)   bands (ev):

  -103.6913-103.6263-103.4856-103.4659-103.1419-102.8526 -69.2171 -68.8674
   -68.8139 -68.8073 -64.2488 -64.1912 -64.1077 -64.0532 -64.0448 -64.0373
   -63.9471 -63.8970 -63.8845 -63.8563 -63.7601 -63.7389 -63.6428 -63.6032
   -63.4264 -63.3489 -63.2390 -63.2333 -35.7104 -35.6617 -35.5664 -35.3598
   -35.3367 -35.3190 -35.3130 -35.3043 -35.2907 -35.2787 -35.2449 -35.2372
   -11.8966 -11.7673 -11.6934 -11.6438 -11.5434 -11.4301 -11.3857 -11.2789
   -11.2691 -11.1343  -6.2425  -6.1988  -6.0248  -6.0160  -5.4530  -5.2110
    -5.1647  -5.0675  -4.8873  -4.7685  -4.5634  -4.4368  -4.2929  -4.0746
    -4.0234  -3.9582  -3.8405  -3.7888  -3.7285  -3.7146  -3.6299  -3.5802
    -3.4849  -3.4284  -3.3543  -3.2557  -3.1983  -3.0836  -3.0396  -2.9955
    -2.8032  -2.7342  -2.6543  -2.6338  -2.5900  -2.4434  -2.3595  -2.3363
    -2.2821  -2.1992  -2.1799  -2.1241  -1.9699  -1.9482  -1.8845  -1.8431
    -1.6921  -1.5834  -1.5250  -1.4867  -1.4592  -1.3833  -1.2840  -1.2167
    -1.2040  -1.1372  -1.0035  -0.9491  -0.8184  -0.7931   0.1946   0.2217
     0.6784   0.7756   0.9171   0.9428   1.0874   1.2188   1.4384   1.5504
     1.6176   1.6987   1.7929   1.8606   1.9368   2.1002   2.5952   2.6166
     2.7238   2.7849   3.0757   3.1840

          k =-0.5000-2.5065 0.0000 ( 88788 PWs)   bands (ev):

  -103.6912-103.6263-103.4855-103.4661-103.1419-102.8526 -69.2169 -68.8673
   -68.8137 -68.8071 -64.2489 -64.1913 -64.1067 -64.0532 -64.0449 -64.0389
   -63.9457 -63.8973 -63.8821 -63.8593 -63.7578 -63.7400 -63.6428 -63.6032
   -63.4261 -63.3489 -63.2390 -63.2331 -35.7097 -35.6684 -35.5655 -35.3667
   -35.3359 -35.3198 -35.3181 -35.3111 -35.2900 -35.2778 -35.2442 -35.2364
   -11.6810 -11.6532 -11.5634 -11.4749 -11.4488 -11.4022 -11.3460 -11.2143
   -11.2091 -11.0850  -6.4749  -6.4393  -6.2559  -6.2528  -5.6374  -5.3101
    -5.2177  -5.0518  -5.0097  -4.9999  -4.3316  -4.2768  -4.2231  -4.0389
    -3.9662  -3.9016  -3.8140  -3.7191  -3.6880  -3.6625  -3.6133  -3.5264
    -3.4744  -3.4279  -3.3632  -3.3597  -3.1100  -3.0632  -3.0532  -2.9600
    -2.8382  -2.7799  -2.6269  -2.6050  -2.5168  -2.5152  -2.4244  -2.3336
    -2.3178  -2.2599  -2.1430  -2.0867  -2.0667  -1.9943  -1.9807  -1.9284
    -1.7221  -1.5948  -1.5100  -1.4937  -1.4688  -1.4005  -1.3387  -1.2966
    -1.2253  -1.1754  -1.1044  -1.0772  -0.8848  -0.8067   0.1189   0.1868
     0.7285   0.7519   0.9373   0.9409   1.0612   1.1001   1.4741   1.6411
     1.7397   1.8760   1.9163   2.0503   2.1342   2.1883   2.4456   2.5243
     2.5377   2.6633   3.1855   3.2334

     the Fermi energy is    -0.1035 ev

!    total energy              =   -9109.81605010 Ry
     total all-electron energy =     -9109.816050 Ry
     estimated scf accuracy    <          4.5E-09 Ry
     smearing contrib. (-TS)   =      -0.00028278 Ry
     internal energy E=F+TS    =   -9109.81576732 Ry

     The total energy is F=E-TS. E is the sum of the following terms:
     one-electron contribution =  -15953.11259776 Ry
     hartree contribution      =    7833.74996129 Ry
     xc contribution           =    -364.66907588 Ry
     ewald contribution        =    5641.88312283 Ry
     one-center paw contrib.   =   -6267.66717781 Ry

     convergence has been achieved in  17 iterations

     negative rho (up, down):  6.502E-02 0.000E+00

     Forces acting on atoms (cartesian axes, Ry/au):

     atom    1 type  1   force =     0.03012508    0.00000000   -0.00510665
     atom    2 type  1   force =    -0.00221398    0.00000000   -0.00077043
     atom    3 type  1   force =    -0.01613918    0.00000000    0.00114231
     atom    4 type  1   force =    -0.00545013    0.00000000    0.00221659
     atom    5 type  2   force =     0.01009818    0.00000000    0.00102217
     atom    6 type  2   force =    -0.00251360    0.00000000   -0.00132714
     atom    7 type  2   force =    -0.00091326    0.00000000    0.00017222
     atom    8 type  2   force =     0.01165675    0.00000000   -0.00293115
     atom    9 type  2   force =     0.00232668    0.00000000    0.00079136
     atom   10 type  2   force =    -0.01572708    0.00000000   -0.00277473
     atom   11 type  3   force =     0.01329500    0.00000000   -0.00078030
     atom   12 type  3   force =     0.00012286    0.00000000    0.00004573
     atom   13 type  3   force =     0.00113090    0.00000000    0.00014010
     atom   14 type  3   force =    -0.00948879    0.00000000    0.00236319
     atom   15 type  3   force =     0.00119273    0.00000000    0.00043872
     atom   16 type  3   force =    -0.00119301    0.00000000   -0.00154281
     atom   17 type  3   force =    -0.00078134    0.00000000   -0.00001002
     atom   18 type  3   force =     0.02629074    0.00000000   -0.01845309
     atom   19 type  3   force =    -0.04295592    0.00000000    0.02505298
     atom   20 type  3   force =     0.00113738    0.00000000    0.00031095

     Total force =     0.074427     Total SCF correction =     0.000428


     Computing stress (Cartesian axis) and pressure


     negative rho (up, down):  6.502E-02 0.000E+00
          total   stress  (Ry/bohr**3)                   (kbar)     P=       -6.40
  -0.00006017   0.00000000   0.00001179           -8.85        0.00        1.73
   0.00000000  -0.00001974   0.00000000            0.00       -2.90        0.00
   0.00001179   0.00000000  -0.00005062            1.73        0.00       -7.45

     Energy error            =      6.3E-03 Ry
     Gradient error          =      4.3E-02 Ry/Bohr

     number of scf cycles    =   2
     number of bfgs steps    =   1

     energy             old  =   -9109.8097974459 Ry
     energy             new  =   -9109.8160501047 Ry

     CASE: energy            _new < energy            _old


     WARNING: bfgs curvature condition failed, Theta= 0.878
     new trust radius        =       0.0576358519 bohr
     new conv_thr            =       0.0000000043 Ry


ATOMIC_POSITIONS (angstrom)
Ta              15.4285234564        0.9149235643       12.4417138740
Ta               6.5687424899        2.7447696811       12.5908805601
Ta               2.2445220934        0.9149235643       12.4453887095
Ta              11.0757579261        2.7447696811       12.5955102970
Ni              12.8762059381        0.9149235643       11.7631373832
Ni               4.0424324602        2.7447696811       13.2723896915
Ni               4.7924460642        0.9149235643       11.7613480097
Ni              13.6270797032        2.7447696811       13.2709036684
Ni               8.8314467222        0.9149235643       12.3694563771
Ni              -0.0096912585        2.7447696811       12.6614064211
Te              14.2284912680        2.7447696811       10.5330415534
Te               5.3930539703        0.9149235643       14.5007374012
Te              10.5957203619        0.9149235643       10.5188998233
Te               1.7639033941        2.7447696811       14.5205046690
Te               3.4462828511        2.7447696811       10.5347489612
Te              12.2616182343        0.9149235643       14.4999837631
Te               7.0604546132        0.9149235643       10.5190255874
Te              15.9115247678        2.7447696811       14.4928621662
Te              -0.0411037019        0.9149235643       10.8684221582
Te               8.8311510092        2.7447696811       14.1978899252



     Writing config-only to output data dir /ddn/data/physics/eamoujaes/2D-Ta2Ni3Te5/ELASTIC/OUT/ta2ni3te5.save/ :
     XML data file
     NEW-OLD atomic charge density approx. for the potential

     negative rho (up, down):  6.510E-02 0.000E+00

     total cpu time spent up to now is     1941.3 secs

     Self-consistent Calculation

     iteration #  1     ecut=    60.00 Ry     beta= 0.20
     Davidson diagonalization with overlap
     ethr =  1.00E-06,  avg # of iterations =  6.8

     negative rho (up, down):  6.508E-02 0.000E+00

     total cpu time spent up to now is     1980.8 secs

     total energy              =   -9109.82137552 Ry
     estimated scf accuracy    <       0.00266002 Ry

     iteration #  2     ecut=    60.00 Ry     beta= 0.20
     Davidson diagonalization with overlap
     ethr =  1.21E-06,  avg # of iterations = 10.7

     negative rho (up, down):  6.508E-02 0.000E+00

     total cpu time spent up to now is     2019.3 secs

     total energy              =   -9109.82072991 Ry
     estimated scf accuracy    <       0.04014142 Ry

     iteration #  3     ecut=    60.00 Ry     beta= 0.20
     Davidson diagonalization with overlap
     c_bands:  1 eigenvalues not converged
     ethr =  1.21E-06,  avg # of iterations =  6.9

     negative rho (up, down):  6.507E-02 0.000E+00

     total cpu time spent up to now is     2057.3 secs

     total energy              =   -9109.82218860 Ry
     estimated scf accuracy    <       0.00074329 Ry

     iteration #  4     ecut=    60.00 Ry     beta= 0.20
     Davidson diagonalization with overlap
     ethr =  3.38E-07,  avg # of iterations =  1.3

     negative rho (up, down):  6.507E-02 0.000E+00

     total cpu time spent up to now is     2094.6 secs

     total energy              =   -9109.82223545 Ry
     estimated scf accuracy    <       0.00024727 Ry

     iteration #  5     ecut=    60.00 Ry     beta= 0.20
     Davidson diagonalization with overlap
     ethr =  1.12E-07,  avg # of iterations =  2.0

     negative rho (up, down):  6.506E-02 0.000E+00

     total cpu time spent up to now is     2131.6 secs

     total energy              =   -9109.82224525 Ry
     estimated scf accuracy    <       0.00016107 Ry

     iteration #  6     ecut=    60.00 Ry     beta= 0.20
     Davidson diagonalization with overlap
     ethr =  7.32E-08,  avg # of iterations =  1.1

     negative rho (up, down):  6.505E-02 0.000E+00

     total cpu time spent up to now is     2168.6 secs

     total energy              =   -9109.82225428 Ry
     estimated scf accuracy    <       0.00005559 Ry

     iteration #  7     ecut=    60.00 Ry     beta= 0.20
     Davidson diagonalization with overlap
     ethr =  2.53E-08,  avg # of iterations =  1.6

     negative rho (up, down):  6.504E-02 0.000E+00

     total cpu time spent up to now is     2205.6 secs

     total energy              =   -9109.82225940 Ry
     estimated scf accuracy    <       0.00001308 Ry

     iteration #  8     ecut=    60.00 Ry     beta= 0.20
     Davidson diagonalization with overlap
     ethr =  5.94E-09,  avg # of iterations =  2.0

     negative rho (up, down):  6.503E-02 0.000E+00

     total cpu time spent up to now is     2243.4 secs

     total energy              =   -9109.82226129 Ry
     estimated scf accuracy    <       0.00001428 Ry

     iteration #  9     ecut=    60.00 Ry     beta= 0.20
     Davidson diagonalization with overlap
     ethr =  5.94E-09,  avg # of iterations =  1.0

     negative rho (up, down):  6.503E-02 0.000E+00

     total cpu time spent up to now is     2280.7 secs

     total energy              =   -9109.82226304 Ry
     estimated scf accuracy    <       0.00000396 Ry

     iteration # 10     ecut=    60.00 Ry     beta= 0.20
     Davidson diagonalization with overlap
     ethr =  1.80E-09,  avg # of iterations =  2.0

     negative rho (up, down):  6.503E-02 0.000E+00

     total cpu time spent up to now is     2318.2 secs

     total energy              =   -9109.82226373 Ry
     estimated scf accuracy    <       0.00000159 Ry

     iteration # 11     ecut=    60.00 Ry     beta= 0.20
     Davidson diagonalization with overlap
     ethr =  7.23E-10,  avg # of iterations =  2.0

     negative rho (up, down):  6.502E-02 0.000E+00

     total cpu time spent up to now is     2355.6 secs

     total energy              =   -9109.82226397 Ry
     estimated scf accuracy    <       0.00000038 Ry

     iteration # 12     ecut=    60.00 Ry     beta= 0.20
     Davidson diagonalization with overlap
     ethr =  1.74E-10,  avg # of iterations =  3.9

     negative rho (up, down):  6.502E-02 0.000E+00

     total cpu time spent up to now is     2393.1 secs

     total energy              =   -9109.82226405 Ry
     estimated scf accuracy    <       0.00000038 Ry

     iteration # 13     ecut=    60.00 Ry     beta= 0.20
     Davidson diagonalization with overlap
     ethr =  1.71E-10,  avg # of iterations =  1.0

     negative rho (up, down):  6.502E-02 0.000E+00

     total cpu time spent up to now is     2430.3 secs

     total energy              =   -9109.82226415 Ry
     estimated scf accuracy    <       0.00000014 Ry

     iteration # 14     ecut=    60.00 Ry     beta= 0.20
     Davidson diagonalization with overlap
     ethr =  6.51E-11,  avg # of iterations =  2.0

     negative rho (up, down):  6.502E-02 0.000E+00

     total cpu time spent up to now is     2467.6 secs

     total energy              =   -9109.82226415 Ry
     estimated scf accuracy    <       0.00000031 Ry

     iteration # 15     ecut=    60.00 Ry     beta= 0.20
     Davidson diagonalization with overlap
     ethr =  6.51E-11,  avg # of iterations =  1.3

     negative rho (up, down):  6.502E-02 0.000E+00

     total cpu time spent up to now is     2504.9 secs

     total energy              =   -9109.82226417 Ry
     estimated scf accuracy    <       0.00000004 Ry

     iteration # 16     ecut=    60.00 Ry     beta= 0.20
     Davidson diagonalization with overlap
     ethr =  1.78E-11,  avg # of iterations =  2.5

     negative rho (up, down):  6.502E-02 0.000E+00

     total cpu time spent up to now is     2542.7 secs

     total energy              =   -9109.82226417 Ry
     estimated scf accuracy    <       0.00000005 Ry

     iteration # 17     ecut=    60.00 Ry     beta= 0.20
     Davidson diagonalization with overlap
     ethr =  1.78E-11,  avg # of iterations =  1.0

     negative rho (up, down):  6.502E-02 0.000E+00

     total cpu time spent up to now is     2579.7 secs

     total energy              =   -9109.82226418 Ry
     estimated scf accuracy    <          4.8E-09 Ry

     iteration # 18     ecut=    60.00 Ry     beta= 0.20
     Davidson diagonalization with overlap
     ethr =  2.18E-12,  avg # of iterations =  5.3

     negative rho (up, down):  6.502E-02 0.000E+00

     total cpu time spent up to now is     2617.5 secs

     End of self-consistent calculation

          k = 0.0000 0.0000 0.0000 ( 89197 PWs)   bands (ev):

  -103.6595-103.5975-103.4878-103.4649-103.1446-102.8784 -69.2056 -68.8689
   -68.8354 -68.8133 -64.2176 -64.1605 -64.0818 -64.0524 -64.0435 -63.9902
   -63.9305 -63.8976 -63.8665 -63.8323 -63.7807 -63.7343 -63.6455 -63.6060
   -63.4288 -63.3747 -63.2648 -63.2584 -35.6989 -35.5875 -35.5652 -35.3437
   -35.3260 -35.3063 -35.3031 -35.2926 -35.2704 -35.2622 -35.2495 -35.2423
   -13.0740 -12.8593 -12.5715 -12.3021 -12.2125 -11.9898 -11.9423 -11.8818
   -11.7385 -11.6576  -6.3132  -6.1261  -5.8587  -5.7571  -5.6064  -5.4896
    -5.3185  -4.8244  -4.7465  -4.3411  -4.2473  -4.0345  -3.9464  -3.8989
    -3.8941  -3.7972  -3.7831  -3.5658  -3.4654  -3.3988  -3.3626  -3.1902
    -2.9477  -2.8118  -2.7750  -2.7583  -2.7478  -2.6089  -2.4637  -2.4098
    -2.3983  -2.3524  -2.2460  -2.1754  -2.1316  -2.0392  -1.9765  -1.9189
    -1.8621  -1.8370  -1.7712  -1.5730  -1.5252  -1.4666  -1.4430  -1.3742
    -1.3630  -1.2670  -1.2325  -1.1942  -1.1538  -1.1013  -0.9786  -0.8747
    -0.8200  -0.7786  -0.6703  -0.5513  -0.3198  -0.2004  -0.0818   0.1406
     0.4845   0.5627   0.9014   0.9457   1.0354   1.1029   1.2312   1.2899
     1.3066   1.6477   1.6980   2.0318   2.1605   2.2643   2.7896   2.9617
     3.0705   3.1724   3.2422   3.2471

          k = 0.0000 0.5013 0.0000 ( 89137 PWs)   bands (ev):

  -103.6595-103.5975-103.4877-103.4650-103.1446-102.8784 -69.2054 -68.8688
   -68.8352 -68.8132 -64.2176 -64.1605 -64.0812 -64.0524 -64.0436 -63.9924
   -63.9286 -63.8969 -63.8667 -63.8350 -63.7783 -63.7346 -63.6455 -63.6059
   -63.4288 -63.3747 -63.2648 -63.2584 -35.6982 -35.5943 -35.5642 -35.3428
   -35.3252 -35.3053 -35.3023 -35.2996 -35.2698 -35.2691 -35.2493 -35.2486
   -12.9804 -12.7675 -12.4886 -12.2379 -12.1570 -11.9330 -11.8881 -11.8323
   -11.6827 -11.6201  -6.2287  -6.0434  -5.7616  -5.6592  -5.5273  -5.3858
    -5.2342  -4.7517  -4.6829  -4.3264  -4.2339  -4.0914  -4.0429  -4.0197
    -3.9552  -3.9047  -3.7879  -3.5570  -3.4532  -3.3972  -3.3922  -3.1300
    -3.1010  -2.9700  -2.8900  -2.8599  -2.8233  -2.7908  -2.6855  -2.4682
    -2.3953  -2.3529  -2.3217  -2.2823  -2.1149  -2.0708  -2.0362  -1.9902
    -1.9688  -1.8791  -1.7896  -1.7373  -1.6655  -1.6576  -1.5392  -1.5095
    -1.4294  -1.3950  -1.2915  -1.1892  -1.1712  -1.0841  -1.0671  -0.8692
    -0.8535  -0.7882  -0.7089  -0.6610  -0.3204  -0.1268  -0.0880   0.2053
     0.4376   0.5502   0.7330   0.9157   1.0019   1.0355   1.1543   1.2935
     1.3386   1.5639   1.7387   1.8356   1.9429   2.2762   2.4637   2.6282
     2.6862   2.8132   3.0345   3.2238

          k = 0.0000 1.0026 0.0000 ( 89121 PWs)   bands (ev):

  -103.6593-103.5977-103.4873-103.4654-103.1446-102.8784 -69.2050 -68.8684
   -68.8348 -68.8127 -64.2178 -64.1609 -64.0796 -64.0523 -64.0439 -63.9978
   -63.9239 -63.8948 -63.8674 -63.8417 -63.7725 -63.7357 -63.6455 -63.6059
   -63.4289 -63.3747 -63.2649 -63.2585 -35.6967 -35.6120 -35.5617 -35.3406
   -35.3232 -35.3178 -35.3030 -35.3002 -35.2873 -35.2684 -35.2669 -35.2465
   -12.7128 -12.5061 -12.2556 -12.0765 -11.9941 -11.7791 -11.7423 -11.6878
   -11.5328 -11.5156  -6.0193  -5.8341  -5.5156  -5.4487  -5.3072  -5.1268
    -5.0225  -4.7683  -4.5828  -4.4500  -4.3322  -4.2853  -4.2305  -4.1593
    -4.1285  -4.0242  -3.8777  -3.7189  -3.6531  -3.5617  -3.4930  -3.4053
    -3.3456  -3.1997  -3.1378  -3.0180  -2.9874  -2.9144  -2.8383  -2.6931
    -2.6283  -2.5613  -2.5391  -2.4906  -2.3732  -2.2840  -2.2307  -2.1625
    -2.1035  -2.0071  -1.9295  -1.8084  -1.7878  -1.7353  -1.6337  -1.6126
    -1.5687  -1.5001  -1.4348  -1.3098  -1.2020  -1.1413  -1.0922  -1.0169
    -0.9887  -0.9708  -0.7784  -0.6613  -0.5142  -0.3857   0.1809   0.4535
     0.4730   0.6833   0.7349   0.8272   0.8585   0.9951   1.0367   1.1985
     1.4067   1.4653   1.5297   1.7687   1.9610   2.0248   2.2124   2.2999
     2.4257   2.5604   3.3745   3.6202

          k = 0.0000 1.5039 0.0000 ( 89069 PWs)   bands (ev):

  -103.6591-103.5978-103.4869-103.4658-103.1446-102.8783 -69.2045 -68.8679
   -68.8343 -68.8122 -64.2179 -64.1613 -64.0774 -64.0522 -64.0443 -64.0040
   -63.9187 -63.8914 -63.8683 -63.8497 -63.7659 -63.7376 -63.6455 -63.6060
   -63.4289 -63.3747 -63.2648 -63.2585 -35.6947 -35.6338 -35.5586 -35.3408
   -35.3373 -35.3206 -35.3098 -35.2998 -35.2977 -35.2899 -35.2654 -35.2439
   -12.3162 -12.1245 -11.9285 -11.8779 -11.7641 -11.6107 -11.5113 -11.4838
   -11.3948 -11.3232  -5.9019  -5.7287  -5.5529  -5.4697  -5.2336  -5.1501
    -5.0167  -4.9645  -4.7662  -4.6234  -4.5507  -4.3294  -4.2913  -4.2580
    -4.2026  -4.1409  -3.9828  -3.8818  -3.8069  -3.6885  -3.6643  -3.6044
    -3.5803  -3.3337  -3.2070  -3.1797  -3.1391  -2.9677  -2.9097  -2.8623
    -2.8223  -2.8023  -2.6680  -2.5814  -2.5471  -2.3932  -2.3073  -2.2432
    -2.1810  -2.1634  -2.0494  -1.9570  -1.9279  -1.8101  -1.7451  -1.7028
    -1.6122  -1.5642  -1.5156  -1.4173  -1.3482  -1.2838  -1.2501  -1.1720
    -1.0691  -1.0119  -0.8848  -0.7648  -0.7372  -0.5986   0.3253   0.4129
     0.5291   0.6140   0.8499   0.9131   1.1018   1.1481   1.1567   1.2544
     1.4143   1.4763   1.5849   1.7838   1.8854   2.2237   2.2949   2.4467
     2.6608   2.7153   3.3357   3.4644

          k = 0.0000 2.0052 0.0000 ( 88887 PWs)   bands (ev):

  -103.6590-103.5979-103.4864-103.4662-103.1445-102.8783 -69.2041 -68.8675
   -68.8339 -68.8118 -64.2179 -64.1615 -64.0751 -64.0521 -64.0445 -64.0087
   -63.9147 -63.8874 -63.8691 -63.8566 -63.7603 -63.7396 -63.6455 -63.6059
   -63.4287 -63.3747 -63.2648 -63.2584 -35.6931 -35.6513 -35.5561 -35.3585
   -35.3355 -35.3277 -35.3184 -35.3083 -35.2975 -35.2953 -35.2635 -35.2417
   -11.8900 -11.7459 -11.6890 -11.6344 -11.5418 -11.4631 -11.3623 -11.2834
   -11.2724 -11.1661  -6.1970  -6.1620  -6.0603  -6.0530  -5.4313  -5.1939
    -5.1330  -5.0861  -4.8820  -4.8121  -4.5238  -4.4408  -4.3155  -4.0693
    -3.9785  -3.9135  -3.8362  -3.7805  -3.7455  -3.6966  -3.6472  -3.5750
    -3.5199  -3.4744  -3.3334  -3.2896  -3.2503  -3.0428  -3.0190  -2.9654
    -2.8284  -2.7687  -2.6860  -2.6259  -2.4981  -2.4017  -2.3556  -2.3218
    -2.2843  -2.1912  -2.1381  -2.0829  -2.0415  -1.9446  -1.9092  -1.8297
    -1.6738  -1.5880  -1.5256  -1.4930  -1.4114  -1.3763  -1.3318  -1.2950
    -1.1555  -1.0608  -1.0336  -0.9665  -0.8372  -0.7923   0.1689   0.2543
     0.6211   0.7158   0.8983   0.9903   1.0113   1.3620   1.4442   1.5616
     1.6451   1.6802   1.7854   1.8286   1.9651   2.1724   2.4364   2.5936
     2.8134   2.9685   3.0496   3.1618

          k = 0.0000-2.5065 0.0000 ( 88770 PWs)   bands (ev):

  -103.6589-103.5980-103.4863-103.4664-103.1445-102.8783 -69.2040 -68.8673
[...]
     1.3752   1.4462   1.5213   1.8061   2.0109   2.1185   2.1247   2.2807
     2.4117   2.5582   3.6374   3.7185

          k = 0.0000 1.5039 0.0000 ( 89069 PWs)   bands (ev):

  -103.4533-103.4514-103.4448-103.4396-103.0940-103.0917 -68.9599 -68.9594
   -68.9576 -68.9573 -64.0306 -64.0275 -64.0245 -64.0183 -63.8660 -63.8647
   -63.8335 -63.8309 -63.7213 -63.7211 -63.6985 -63.6955 -63.5982 -63.5972
   -63.5629 -63.5603 -63.3705 -63.3672 -35.4239 -35.4236 -35.4220 -35.4218
   -35.4198 -35.4191 -35.4179 -35.4178 -35.3834 -35.3826 -35.3802 -35.3793
   -12.2762 -12.0881 -11.9997 -11.8101 -11.7491 -11.6792 -11.5499 -11.5157
   -11.4672 -11.4130  -5.8463  -5.6918  -5.5143  -5.4801  -5.2066  -5.1348
    -4.9744  -4.9662  -4.8297  -4.6471  -4.4698  -4.4305  -4.3131  -4.2966
    -4.1628  -4.1084  -3.9507  -3.9419  -3.8137  -3.6749  -3.6579  -3.6415
    -3.5079  -3.2317  -3.2270  -3.2145  -3.0809  -3.0221  -3.0134  -2.9068
    -2.7547  -2.7439  -2.6756  -2.5590  -2.5292  -2.3948  -2.2998  -2.2084
    -2.1565  -2.1383  -2.0695  -1.9328  -1.9155  -1.7139  -1.6693  -1.6302
    -1.5358  -1.5233  -1.5093  -1.4868  -1.3830  -1.2874  -1.2479  -1.2099
    -0.9992  -0.9764  -0.9397  -0.7571  -0.7462  -0.6298   0.3361   0.4628
     0.5221   0.7186   0.9101   0.9220   1.1087   1.1785   1.1830   1.2040
     1.4524   1.4808   1.5360   1.8635   1.9408   2.2000   2.2341   2.4533
     2.6786   2.7052   3.4983   3.5161

          k = 0.0000 2.0052 0.0000 ( 88887 PWs)   bands (ev):

  -103.4526-103.4499-103.4463-103.4402-103.0940-103.0917 -68.9595 -68.9590
   -68.9572 -68.9569 -64.0305 -64.0269 -64.0253 -64.0185 -63.8593 -63.8586
   -63.8425 -63.8393 -63.7151 -63.7142 -63.7025 -63.6985 -63.5982 -63.5972
   -63.5628 -63.5602 -63.3704 -63.3671 -35.4414 -35.4412 -35.4395 -35.4393
   -35.4180 -35.4173 -35.4161 -35.4160 -35.3809 -35.3805 -35.3780 -35.3776
   -11.8321 -11.7014 -11.6922 -11.5928 -11.5746 -11.5568 -11.3761 -11.3552
   -11.2973 -11.2877  -6.1183  -6.1142  -6.0675  -6.0626  -5.3984  -5.3494
    -5.0975  -5.0879  -4.8687  -4.8198  -4.4335  -4.4290  -4.2736  -4.0139
    -3.9785  -3.9477  -3.8850  -3.8123  -3.7839  -3.7122  -3.6128  -3.5683
    -3.4504  -3.4356  -3.3453  -3.3368  -3.2511  -3.1353  -3.0953  -3.0466
    -2.7667  -2.7377  -2.6974  -2.5805  -2.4673  -2.3977  -2.2766  -2.2679
    -2.2466  -2.2327  -2.2070  -2.0449  -1.9489  -1.9153  -1.7865  -1.7821
    -1.6058  -1.5697  -1.5244  -1.5010  -1.4775  -1.3866  -1.3484  -1.2580
    -1.1092  -1.0748  -1.0146  -0.9248  -0.8439  -0.8377   0.2161   0.3341
     0.5825   0.8350   0.9514   1.0089   1.0567   1.3543   1.4229   1.6191
     1.6321   1.6632   1.7719   1.8591   1.9169   2.1277   2.4505   2.6460
     2.8649   3.0404   3.1392   3.1515

          k = 0.0000-2.5065 0.0000 ( 88770 PWs)   bands (ev):

  -103.4524-103.4484-103.4477-103.4404-103.0940-103.0917 -68.9593 -68.9588
   -68.9570 -68.9568 -64.0304 -64.0261 -64.0259 -64.0185 -63.8541 -63.8522
   -63.8502 -63.8444 -63.7121 -63.7080 -63.7078 -63.7005 -63.5981 -63.5971
   -63.5629 -63.5602 -63.3701 -63.3669 -35.4482 -35.4480 -35.4463 -35.4461
   -35.4172 -35.4165 -35.4153 -35.4152 -35.3799 -35.3798 -35.3771 -35.3769
   -11.5721 -11.5678 -11.5028 -11.4995 -11.4969 -11.4923 -11.3626 -11.3590
   -11.2247 -11.2239  -6.3415  -6.3385  -6.3183  -6.3127  -5.5735  -5.5712
    -5.0947  -5.0945  -4.9779  -4.9746  -4.1840  -4.1808  -4.1460  -4.1438
    -3.9467  -3.9446  -3.7094  -3.7052  -3.6299  -3.6276  -3.5708  -3.5689
    -3.5201  -3.5190  -3.3368  -3.3368  -3.2266  -3.2252  -3.1881  -3.1851
    -2.6956  -2.6945  -2.6375  -2.6373  -2.3466  -2.3458  -2.3307  -2.3303
    -2.2928  -2.2904  -2.1089  -2.1010  -2.0067  -2.0028  -1.9125  -1.9082
    -1.5756  -1.5737  -1.5213  -1.5172  -1.4044  -1.4037  -1.3550  -1.3549
    -1.2214  -1.2209  -1.0635  -1.0633  -0.8491  -0.8469   0.2334   0.2374
     0.7033   0.7060   1.0236   1.0248   1.1416   1.1440   1.4809   1.4849
     1.9350   1.9357   1.9421   1.9493   2.0635   2.0635   2.4030   2.4079
     2.7963   2.7965   3.1968   3.2000

          k =-0.5000 0.0000 0.0000 ( 89178 PWs)   bands (ev):

  -103.4546-103.4537-103.4425-103.4383-103.0941-103.0917 -68.9610 -68.9604
   -68.9586 -68.9584 -64.0306 -64.0282 -64.0232 -64.0177 -63.8741 -63.8726
   -63.8168 -63.8143 -63.7351 -63.7346 -63.6934 -63.6909 -63.5982 -63.5972
   -63.5630 -63.5603 -63.3703 -63.3671 -35.4259 -35.4252 -35.4241 -35.4240
   -35.3890 -35.3889 -35.3848 -35.3846 -35.3762 -35.3760 -35.3743 -35.3741
   -12.9674 -12.9656 -12.4354 -12.4338 -12.1362 -12.1331 -11.9168 -11.9163
   -11.7627 -11.7615  -6.1592  -6.1574  -5.8765  -5.8735  -5.5020  -5.4975
    -5.1636  -5.1614  -4.6391  -4.6371  -3.9676  -3.9642  -3.7951  -3.7911
    -3.7440  -3.7395  -3.6478  -3.6463  -3.5111  -3.5048  -3.3320  -3.3281
    -2.8357  -2.8334  -2.8076  -2.8047  -2.5756  -2.5715  -2.3517  -2.3490
    -2.3365  -2.3348  -2.1389  -2.1385  -2.0830  -2.0815  -2.0786  -2.0756
    -1.8758  -1.8722  -1.7606  -1.7591  -1.4091  -1.4061  -1.3334  -1.3289
    -1.2845  -1.2809  -1.2502  -1.2476  -1.1307  -1.1295  -0.9098  -0.9071
    -0.8335  -0.8330  -0.6140  -0.6105  -0.1855  -0.1840  -0.1575  -0.1570
     0.7092   0.7106   0.7427   0.7452   0.9969   0.9998   1.2075   1.2103
     1.4685   1.4717   2.0875   2.0889   2.0905   2.0933   3.0645   3.0655
     3.1359   3.1372   3.3312   3.4017

          k =-0.5000 0.5013 0.0000 ( 89132 PWs)   bands (ev):

  -103.4545-103.4534-103.4428-103.4384-103.0941-103.0917 -68.9608 -68.9603
   -68.9585 -68.9583 -64.0306 -64.0281 -64.0233 -64.0177 -63.8732 -63.8717
   -63.8191 -63.8166 -63.7331 -63.7325 -63.6939 -63.6914 -63.5981 -63.5972
   -63.5629 -63.5602 -63.3704 -63.3671 -35.4251 -35.4243 -35.4232 -35.4231
   -35.3882 -35.3881 -35.3841 -35.3840 -35.3830 -35.3828 -35.3812 -35.3810
   -12.8746 -12.8728 -12.3549 -12.3532 -12.0890 -12.0859 -11.8588 -11.8582
   -11.7214 -11.7202  -6.0767  -6.0748  -5.7762  -5.7733  -5.4124  -5.4078
    -5.0862  -5.0838  -4.5908  -4.5888  -4.0519  -4.0482  -3.9007  -3.8988
    -3.7415  -3.7390  -3.6751  -3.6719  -3.5830  -3.5825  -3.2753  -3.2704
    -2.9846  -2.9838  -2.8939  -2.8917  -2.7612  -2.7594  -2.4976  -2.4965
    -2.3315  -2.3296  -2.2443  -2.2438  -2.1317  -2.1312  -2.0437  -2.0414
    -1.9617  -1.9604  -1.8242  -1.8214  -1.6226  -1.6178  -1.4961  -1.4943
    -1.3544  -1.3528  -1.2358  -1.2341  -1.0716  -1.0689  -1.0004  -0.9991
    -0.8539  -0.8490  -0.7165  -0.7161  -0.2483  -0.2478   0.0381   0.0392
     0.5386   0.5397   0.8589   0.8612   0.9796   0.9816   1.1340   1.1360
     1.4357   1.4401   1.8465   1.8501   2.0804   2.0828   2.6077   2.6083
     2.7334   2.7353   3.3557   3.3561

          k =-0.5000 1.0026 0.0000 ( 89098 PWs)   bands (ev):

  -103.4539-103.4526-103.4436-103.4389-103.0941-103.0917 -68.9604 -68.9599
   -68.9581 -68.9579 -64.0305 -64.0278 -64.0238 -64.0180 -63.8706 -63.8691
   -63.8252 -63.8227 -63.7279 -63.7275 -63.6956 -63.6930 -63.5981 -63.5971
   -63.5629 -63.5602 -63.3705 -63.3672 -35.4229 -35.4222 -35.4211 -35.4210
   -35.4012 -35.4009 -35.3993 -35.3990 -35.3859 -35.3858 -35.3822 -35.3820
   -12.6094 -12.6077 -12.1305 -12.1288 -11.9593 -11.9560 -11.7037 -11.7032
   -11.6057 -11.6049  -5.8727  -5.8706  -5.5184  -5.5160  -5.1865  -5.1816
    -4.9654  -4.9643  -4.5356  -4.5329  -4.2636  -4.2606  -4.1884  -4.1871
    -3.8884  -3.8876  -3.7516  -3.7506  -3.7181  -3.7175  -3.4751  -3.4701
    -3.2671  -3.2644  -3.1111  -3.1059  -2.9468  -2.9441  -2.7328  -2.7312
    -2.5458  -2.5446  -2.5132  -2.5124  -2.3318  -2.3293  -2.1753  -2.1749
    -2.0666  -2.0644  -1.9060  -1.9044  -1.6640  -1.6570  -1.6238  -1.6231
    -1.4128  -1.4105  -1.3973  -1.3943  -1.1683  -1.1654  -1.1368  -1.1319
    -1.0160  -1.0147  -0.6637  -0.6621  -0.4733  -0.4726   0.3200   0.3211
     0.6253   0.6264   0.8040   0.8046   1.0281   1.0293   1.0621   1.0670
     1.3136   1.3181   1.6911   1.6959   2.0049   2.0087   2.3089   2.3103
     2.4422   2.4430   3.7146   3.7152

          k =-0.5000 1.5039 0.0000 ( 89042 PWs)   bands (ev):

  -103.4533-103.4514-103.4448-103.4396-103.0940-103.0917 -68.9599 -68.9594
   -68.9576 -68.9573 -64.0305 -64.0275 -64.0245 -64.0183 -63.8659 -63.8647
   -63.8335 -63.8308 -63.7212 -63.7211 -63.6985 -63.6955 -63.5982 -63.5972
   -63.5629 -63.5602 -63.3705 -63.3672 -35.4239 -35.4236 -35.4220 -35.4218
   -35.4198 -35.4191 -35.4179 -35.4178 -35.3831 -35.3830 -35.3798 -35.3796
   -12.2170 -12.2154 -11.8227 -11.8216 -11.7824 -11.7795 -11.5172 -11.5168
   -11.4378 -11.4376  -5.7836  -5.7819  -5.4233  -5.4200  -5.2681  -5.2669
    -5.0136  -5.0110  -4.6693  -4.6678  -4.4785  -4.4761  -4.1792  -4.1782
    -4.1145  -4.1137  -4.0540  -4.0513  -3.8017  -3.8006  -3.6196  -3.6174
    -3.2845  -3.2792  -3.2638  -3.2632  -3.0790  -3.0753  -3.0048  -3.0036
    -2.7109  -2.7095  -2.6520  -2.6497  -2.4286  -2.4262  -2.2570  -2.2547
    -2.1421  -2.1399  -2.0656  -2.0623  -1.7523  -1.7446  -1.6534  -1.6489
    -1.5288  -1.5254  -1.4851  -1.4840  -1.3902  -1.3876  -1.1795  -1.1777
    -1.0396  -1.0386  -0.8413  -0.8393  -0.6748  -0.6718   0.3961   0.3983
     0.7462   0.7483   0.9138   0.9162   1.0612   1.0615   1.1435   1.1441
     1.4673   1.4721   1.6560   1.6607   2.0807   2.0864   2.4210   2.4220
     2.6062   2.6077   3.5773   3.5797

          k =-0.5000 2.0052 0.0000 ( 88916 PWs)   bands (ev):

  -103.4527-103.4499-103.4463-103.4402-103.0940-103.0917 -68.9595 -68.9590
   -68.9572 -68.9569 -64.0306 -64.0269 -64.0254 -64.0186 -63.8593 -63.8586
   -63.8425 -63.8393 -63.7151 -63.7142 -63.7025 -63.6985 -63.5982 -63.5973
   -63.5629 -63.5602 -63.3703 -63.3671 -35.4414 -35.4412 -35.4395 -35.4393
   -35.4180 -35.4173 -35.4161 -35.4160 -35.3808 -35.3807 -35.3779 -35.3777
   -11.7925 -11.7911 -11.6254 -11.6212 -11.5550 -11.5526 -11.3777 -11.3768
   -11.2871 -11.2865  -6.1759  -6.1733  -5.9843  -5.9787  -5.4184  -5.4175
    -5.0917  -5.0890  -4.8308  -4.8278  -4.4445  -4.4432  -4.1406  -4.1379
    -3.9761  -3.9751  -3.8876  -3.8834  -3.7108  -3.7090  -3.5880  -3.5870
    -3.4170  -3.4162  -3.3074  -3.3050  -3.1968  -3.1933  -3.0888  -3.0875
    -2.7671  -2.7650  -2.6414  -2.6396  -2.4590  -2.4565  -2.2686  -2.2673
    -2.2589  -2.2569  -2.1464  -2.1446  -1.8559  -1.8466  -1.8096  -1.8059
    -1.6065  -1.6047  -1.4919  -1.4911  -1.4720  -1.4681  -1.2156  -1.2154
    -1.1893  -1.1881  -0.9274  -0.9239  -0.8655  -0.8638   0.2748   0.2784
     0.7726   0.7753   0.9716   0.9731   1.1540   1.1557   1.4941   1.4970
     1.6615   1.6617   1.8342   1.8378   1.9742   1.9776   2.7024   2.7040
     2.7184   2.7194   3.2056   3.2072

          k =-0.5000-2.5065 0.0000 ( 88788 PWs)   bands (ev):

  -103.4524-103.4484-103.4477-103.4404-103.0940-103.0917 -68.9593 -68.9588
   -68.9570 -68.9568 -64.0306 -64.0263 -64.0261 -64.0187 -63.8541 -63.8521
   -63.8502 -63.8443 -63.7121 -63.7080 -63.7077 -63.7004 -63.5982 -63.5973
   -63.5629 -63.5602 -63.3701 -63.3668 -35.4482 -35.4480 -35.4463 -35.4461
   -35.4172 -35.4165 -35.4153 -35.4152 -35.3799 -35.3798 -35.3771 -35.3769
   -11.5720 -11.5677 -11.5082 -11.5044 -11.4902 -11.4860 -11.3652 -11.3616
   -11.2235 -11.2227  -6.4164  -6.4133  -6.2255  -6.2195  -5.5908  -5.5893
    -5.0999  -5.0988  -4.9799  -4.9758  -4.1961  -4.1940  -4.1380  -4.1348
    -3.9165  -3.9139  -3.6982  -3.6936  -3.6931  -3.6904  -3.5921  -3.5889
    -3.5415  -3.5385  -3.3509  -3.3505  -3.1188  -3.1159  -3.1065  -3.1048
    -2.7978  -2.7951  -2.6210  -2.6207  -2.4026  -2.4020  -2.3199  -2.3169
    -2.2995  -2.2988  -2.1024  -2.0954  -2.0037  -2.0018  -1.8761  -1.8684
    -1.5932  -1.5932  -1.5214  -1.5165  -1.4037  -1.4025  -1.3400  -1.3379
    -1.2481  -1.2456  -1.0587  -1.0575  -0.8501  -0.8474   0.2391   0.2433
     0.7825   0.7861   1.0090   1.0100   1.0238   1.0248   1.6272   1.6321
     1.7592   1.7633   2.0140   2.0153   2.0503   2.0504   2.5368   2.5388
     2.6160   2.6212   3.3920   3.4284

     the Fermi energy is    -0.1665 ev

!    total energy              =   -9109.87811546 Ry
     total all-electron energy =     -9109.878115 Ry
     estimated scf accuracy    <          6.2E-11 Ry
     smearing contrib. (-TS)   =      -0.00022849 Ry
     internal energy E=F+TS    =   -9109.87788696 Ry

     The total energy is F=E-TS. E is the sum of the following terms:
     one-electron contribution =  -15944.69986770 Ry
     hartree contribution      =    7829.62875454 Ry
     xc contribution           =    -364.68048603 Ry
     ewald contribution        =    5637.52939458 Ry
     one-center paw contrib.   =   -6267.65568235 Ry

     convergence has been achieved in  18 iterations

     negative rho (up, down):  6.555E-02 0.000E+00

     Forces acting on atoms (cartesian axes, Ry/au):

     atom    1 type  1   force =    -0.00061169    0.00000000    0.00036425
     atom    2 type  1   force =    -0.00011215    0.00000000   -0.00001637
     atom    3 type  1   force =     0.00005785    0.00000000   -0.00012349
     atom    4 type  1   force =     0.00005953    0.00000000    0.00001873
     atom    5 type  2   force =     0.00057282    0.00000000    0.00046353
     atom    6 type  2   force =     0.00015810    0.00000000   -0.00001838
     atom    7 type  2   force =     0.00015751    0.00000000    0.00015777
     atom    8 type  2   force =     0.00065671    0.00000000   -0.00003999
     atom    9 type  2   force =     0.00036640    0.00000000   -0.00039026
     atom   10 type  2   force =    -0.00027734    0.00000000    0.00005629
     atom   11 type  3   force =    -0.00049778    0.00000000    0.00043673
     atom   12 type  3   force =     0.00010835    0.00000000    0.00027130
     atom   13 type  3   force =    -0.00029272    0.00000000    0.00000280
     atom   14 type  3   force =    -0.00013948    0.00000000   -0.00006125
     atom   15 type  3   force =     0.00012438    0.00000000    0.00012519
     atom   16 type  3   force =    -0.00024635    0.00000000   -0.00011018
     atom   17 type  3   force =    -0.00001722    0.00000000   -0.00009660
     atom   18 type  3   force =     0.00035373    0.00000000   -0.00008358
     atom   19 type  3   force =    -0.00009887    0.00000000   -0.00058120
     atom   20 type  3   force =    -0.00032179    0.00000000   -0.00037528

     Total force =     0.001852     Total SCF correction =     0.000044


     Computing stress (Cartesian axis) and pressure


     negative rho (up, down):  6.555E-02 0.000E+00
          total   stress  (Ry/bohr**3)                   (kbar)     P=       -7.45
  -0.00009784   0.00000000   0.00000016          -14.39        0.00        0.02
   0.00000000  -0.00001655   0.00000000            0.00       -2.44        0.00
   0.00000016   0.00000000  -0.00003750            0.02        0.00       -5.52

     Energy error            =      8.8E-06 Ry
     Gradient error          =      6.6E-04 Ry/Bohr

     bfgs converged in  26 scf cycles and  25 bfgs steps
     (criteria: energy <  1.0E-04 Ry, force <  1.0E-03 Ry/Bohr)

     End of BFGS Geometry Optimization

     Final energy             =   -9109.8781154575 Ry

     File /ddn/data/physics/eamoujaes/2D-Ta2Ni3Te5/ELASTIC/OUT/ta2ni3te5.bfgs deleted, as requested
Begin final coordinates

ATOMIC_POSITIONS (angstrom)
Ta              15.6669835822        0.9149235643       12.4098907578
Ta               6.4955630304        2.7447696811       12.6243065598
Ta               2.0622277766        0.9149235643       12.4235727691
Ta              11.2324796855        2.7447696811       12.6142731817
Ni              13.0462130255        0.9149235643       11.7622047391
Ni               3.8757734212        2.7447696811       13.2666864168
Ni               4.6782025931        0.9149235643       11.7783783339
Ni              13.8481739324        2.7447696811       13.2510079018
Ni               8.8624331760        0.9149235643       12.3307165891
Ni              -0.3072725383        2.7447696811       12.7137320831
Te              14.4475868504        2.7447696811       10.5403847701
Te               5.2703204789        0.9149235643       14.4897663081
Te              10.7196374341        0.9149235643       10.5524657715
Te               1.5513829843        2.7447696811       14.4865706027
Te               3.2840126640        2.7447696811       10.5545479636
Te              12.4607305270        0.9149235643       14.4789663626
Te               7.0017820652        0.9149235643       10.5604639637
Te              16.1693414012        2.7447696811       14.4753099083
Te              -0.3047113438        0.9149235643       10.9208782521
Te               8.8677016176        2.7447696811       14.1241277647
End final coordinates



     Writing all to output data dir /ddn/data/physics/eamoujaes/2D-Ta2Ni3Te5/ELASTIC/OUT/ta2ni3te5.save/ :
     XML data file, charge density, pseudopotentials, collected wavefunctions
 
     init_run     :     51.07s CPU     63.54s WALL (       1 calls)
     electrons    :  16789.42s CPU  21808.50s WALL (      26 calls)
     update_pot   :    683.90s CPU    879.11s WALL (      25 calls)
     forces       :     47.15s CPU     59.08s WALL (      26 calls)
     stress       :     82.95s CPU    130.17s WALL (      26 calls)

     Called by init_run:
     wfcinit      :      5.83s CPU      7.53s WALL (       1 calls)
     potinit      :     40.70s CPU     50.11s WALL (       1 calls)
     hinit0       :      2.58s CPU      3.04s WALL (       1 calls)

     Called by electrons:
     c_bands      :   1153.19s CPU   1685.47s WALL (     565 calls)
     sum_band     :    516.09s CPU    650.30s WALL (     565 calls)
     v_of_rho     :    201.28s CPU    269.05s WALL (     585 calls)
     newd         :     42.97s CPU     69.60s WALL (     585 calls)
                                       69.59s GPU  (     585 calls)
     PAW_pot      :  16055.20s CPU  20637.76s WALL (     610 calls)
     mix_rho      :     65.50s CPU    121.11s WALL (     565 calls)

     Called by c_bands:
     init_us_2    :    105.86s CPU    133.26s WALL (   14496 calls)
     init_us_2:cp :     88.95s CPU    112.33s WALL (     300 calls)
     init_us_2:gp :     16.55s CPU     20.54s WALL (   14196 calls)
     cegterg      :    654.11s CPU   1112.19s WALL (    6780 calls)

     Called by *egterg:
     cdiaghg      :     58.77s CPU     94.03s WALL (   23123 calls)
                                       93.90s GPU  (   23123 calls)
     h_psi        :    465.64s CPU    801.73s WALL (   23507 calls)
                                      799.76s GPU  (   23507 calls)
     s_psi        :     10.78s CPU     14.78s WALL (   23507 calls)
     g_psi        :      0.06s CPU      7.04s WALL (   16715 calls)
                                        6.91s GPU  (   16715 calls)

     Called by h_psi:
     h_psi:calbec :      0.77s CPU     32.07s WALL (   23507 calls)
                                       31.78s GPU  (   23507 calls)
     vloc_psi     :    416.56s CPU    721.29s WALL (   23507 calls)
                                      721.16s GPU  (   23507 calls)
     add_vuspsi   :      8.05s CPU     40.28s WALL (   23507 calls)
                                       39.93s GPU  (   23507 calls)

     General routines
     calbec       :    259.82s CPU    475.90s WALL (   32147 calls)
     fft          :     58.10s CPU     61.33s WALL (    8234 calls)
                                        3.03s GPU  (    7649 calls)
     ffts         :     15.19s CPU     15.35s WALL (    1150 calls)
                                        0.08s GPU  (     565 calls)
     fftw         :      2.49s CPU    632.39s WALL (  344744 calls)
                                      627.91s GPU  (  344744 calls)
     interpolate  :     83.04s CPU     87.88s WALL (     585 calls)
 
     Parallel routines
 
     PWSCF        :      5h11m CPU      6h46m WALL

 
   This run was terminated on:   7: 6:35  29Jul2024            

=------------------------------------------------------------------------------=
   JOB DONE.
=------------------------------------------------------------------------------=
