
     Program PWSCF v.7.3 starts on 29Jul2024 at  7: 6:50 

     This program is part of the open-source Quantum ESPRESSO suite
     for quantum simulation of materials; please cite
         "P. Giannozzi et al., J. Phys.:Condens. Matter 21 395502 (2009);
         "P. Giannozzi et al., J. Phys.:Condens. Matter 29 465901 (2017);
         "P. Giannozzi et al., J. Chem. Phys. 152 154105 (2020);
          URL http://www.quantum-espresso.org", 
     in publications or presentations arising from this work. More details at
     http://www.quantum-espresso.org/quote

     Parallel version (MPI & OpenMP), running on      32 processor cores
     Number of MPI processes:                 1
     Threads/MPI process:                    32

     MPI processes distributed on     1 nodes
     354038 MiB available memory on the printing compute node when the environment starts
 
     Waiting for input...
     Reading input from standard input
Warning: card &CELL ignored
Warning: card CELL_DYNAMICS='BFGS' ignored
Warning: card PRESS=0.0 ignored
Warning: card CELL_DOFREE='2DXY' ignored
Warning: card / ignored

     Current dimensions of program PWSCF are:
     Max number of different atomic species (ntypx) = 10
     Max number of k-points (npk) =  40000
     Max angular momentum in pseudopotentials (lmaxx) =  4
read_pp_mesh; mismatch in mesh size, discarding the one in header
read_pp_mesh; mismatch in mesh size, discarding the one in header
read_pp_mesh; mismatch in mesh size, discarding the one in header
     Message from routine setup:
     using ibrav=0 with symmetry is DISCOURAGED, use correct ibrav instead
 
     Subspace diagonalization in iterative solution of the eigenvalue problem:
     a serial algorithm will be used

 
     G-vector sticks info
     --------------------
     sticks:   dense  smooth     PW     G-vecs:    dense   smooth      PW
     Sum        9343    4661   1311              2052871   725533  107801
 
     Using Slab Decomposition
 


     bravais-lattice index     =            0
     lattice parameter (alat)  =      35.3360  a.u.
     unit-cell volume          =   11561.5896 (a.u.)^3
     number of atoms/cell      =           20
     number of atomic types    =            3
     number of electrons       =       220.00
     number of Kohn-Sham states=          132
     kinetic-energy cutoff     =      60.0000  Ry
     charge density cutoff     =     480.0000  Ry
     scf convergence threshold =      1.0E-08
     mixing beta               =       0.2000
     number of iterations used =            8  plain     mixing
     energy convergence thresh.=      1.0E-04
     force convergence thresh. =      1.0E-03
     Exchange-correlation= SLA PW PBX PBC
                           (   1   4   3   4   0   0   0)
     nstep                     =         2000


     GPU acceleration is ACTIVE.  1 visible GPUs per MPI rank
     GPU-aware MPI enabled


     celldm(1)=  35.335989  celldm(2)=   0.000000  celldm(3)=   0.000000
     celldm(4)=   0.000000  celldm(5)=   0.000000  celldm(6)=   0.000000

     crystal axes: (cart. coord. in units of alat)
               a(1) = (   1.000000   0.000000   0.000000 )  
               a(2) = (   0.000000   0.195716   0.000000 )  
               a(3) = (   0.000000   0.000000   1.338874 )  

     reciprocal axes: (cart. coord. in units 2 pi/alat)
               b(1) = (  1.000000  0.000000  0.000000 )  
               b(2) = (  0.000000  5.109446  0.000000 )  
               b(3) = (  0.000000  0.000000  0.746896 )  


     PseudoPot. # 1 for Ta read from file:
     /ddn/data/physics/eamoujaes/PSEUDO-CREATED/Ta.upf
     MD5 check sum: d865b2c2c09566b116f2b8decb2c153d
     Pseudo is Projector augmented-wave + core cor, Zval = 13.0
     Generated using ATOMPAW code
     Shape of augmentation charge: SINC**2
     Using radial grid of 2342 points,  6 beta functions with: 
                l(1) =   0
                l(2) =   0
                l(3) =   1
                l(4) =   1
                l(5) =   2
                l(6) =   2
     Q(r) pseudized with 0 coefficients 


     PseudoPot. # 2 for Ni read from file:
     /ddn/data/physics/eamoujaes/PSEUDO-CREATED/Ni.upf
     MD5 check sum: 85a2a5d9d38f4289a1cc30d5adb66a03
     Pseudo is Projector augmented-wave + core cor, Zval = 18.0
     Generated using ATOMPAW code
     Shape of augmentation charge: SINC**2
     Using radial grid of 2342 points,  6 beta functions with: 
                l(1) =   0
                l(2) =   0
                l(3) =   1
                l(4) =   1
                l(5) =   2
                l(6) =   2
     Q(r) pseudized with 0 coefficients 


     PseudoPot. # 3 for Te read from file:
     /ddn/data/physics/eamoujaes/PSEUDO-CREATED/Te.upf
     MD5 check sum: 8d958f193a7511a138982c2e72838810
     Pseudo is Projector augmented-wave + core cor, Zval =  6.0
     Generated using ATOMPAW code
     Shape of augmentation charge: SINC**2
     Using radial grid of 2342 points,  4 beta functions with: 
                l(1) =   0
                l(2) =   0
                l(3) =   1
                l(4) =   1
     Q(r) pseudized with 0 coefficients 


     atomic species   valence    mass     pseudopotential
     Ta               13.00   180.94790     Ta( 1.00)
     Ni               18.00    58.69340     Ni( 1.00)
     Te                6.00   127.60000     Te( 1.00)

      2 Sym. Ops. (no inversion) found ( 1 have fractional translation)



   Cartesian axes

     site n.     atom                  positions (alat units)
         1        Ta     tau(   1) = (   0.8231371   0.0489290   0.6654816  )
         2        Ta     tau(   2) = (   0.3514386   0.1467870   0.6734048  )
         3        Ta     tau(   3) = (   0.1211378   0.0489290   0.6654723  )
         4        Ta     tau(   4) = (   0.5928367   0.1467870   0.6734134  )
         5        Ni     tau(   5) = (   0.6879731   0.0489290   0.6290010  )
         6        Ni     tau(   6) = (   0.2162736   0.1467870   0.7098852  )
         7        Ni     tau(   7) = (   0.2562953   0.0489290   0.6289867  )
         8        Ni     tau(   8) = (   0.7279940   0.1467870   0.7098990  )
         9        Ni     tau(   9) = (   0.4721293   0.0489290   0.6614367  )
        10        Ni     tau(  10) = (   0.0004319   0.1467870   0.6774485  )
        11        Te     tau(  11) = (   0.7600964   0.1467870   0.5634128  )
        12        Te     tau(  12) = (   0.2883963   0.0489290   0.7754731  )
        13        Te     tau(  13) = (   0.5666310   0.0489290   0.5625613  )
        14        Te     tau(  14) = (   0.0949329   0.1467870   0.7763247  )
        15        Te     tau(  15) = (   0.1841643   0.1467870   0.5634009  )
        16        Te     tau(  16) = (   0.6558634   0.0489290   0.7754849  )
        17        Te     tau(  17) = (   0.3776468   0.0489290   0.5625526  )
        18        Te     tau(  18) = (   0.8493450   0.1467870   0.7763339  )
        19        Te     tau(  19) = (   0.0004438   0.0489290   0.5795828  )
        20        Te     tau(  20) = (   0.4721406   0.1467870   0.7593015  )

     number of k points=    12  Gaussian smearing, width (Ry)=  0.0020
                       cart. coord. in units 2pi/alat
        k(    1) = (   0.0000000   0.0000000   0.0000000), wk =   0.1000000
        k(    2) = (   0.0000000   0.5109446   0.0000000), wk =   0.2000000
        k(    3) = (   0.0000000   1.0218892   0.0000000), wk =   0.2000000
        k(    4) = (   0.0000000   1.5328338   0.0000000), wk =   0.2000000
        k(    5) = (   0.0000000   2.0437784   0.0000000), wk =   0.2000000
        k(    6) = (   0.0000000  -2.5547230   0.0000000), wk =   0.1000000
        k(    7) = (  -0.5000000   0.0000000   0.0000000), wk =   0.1000000
        k(    8) = (  -0.5000000   0.5109446   0.0000000), wk =   0.2000000
        k(    9) = (  -0.5000000   1.0218892   0.0000000), wk =   0.2000000
        k(   10) = (  -0.5000000   1.5328338   0.0000000), wk =   0.2000000
        k(   11) = (  -0.5000000   2.0437784   0.0000000), wk =   0.2000000
        k(   12) = (  -0.5000000  -2.5547230   0.0000000), wk =   0.1000000

     Dense  grid:  2052871 G-vectors     FFT dimensions: ( 250,  50, 360)

     Smooth grid:   725533 G-vectors     FFT dimensions: ( 180,  36, 240)

     Estimated max dynamical RAM per process >      10.49 GB

     Initial potential from superposition of free atoms

     starting charge     219.9927, renormalised to     220.0000

     negative rho (up, down):  5.224E-02 0.000E+00
     Starting wfcs are  260 randomized atomic wfcs
     Checking if some PAW data can be deallocated... 

     total cpu time spent up to now is       66.3 secs

     Self-consistent Calculation

     iteration #  1     ecut=    60.00 Ry     beta= 0.20
     Davidson diagonalization with overlap
     ethr =  1.00E-02,  avg # of iterations =  2.9

     negative rho (up, down):  5.276E-02 0.000E+00

     total cpu time spent up to now is      103.9 secs

     total energy              =   -9107.76512821 Ry
     estimated scf accuracy    <       8.09361333 Ry

     iteration #  2     ecut=    60.00 Ry     beta= 0.20
     Davidson diagonalization with overlap
     ethr =  3.68E-03,  avg # of iterations =  3.0

     negative rho (up, down):  5.349E-02 0.000E+00

     total cpu time spent up to now is      141.1 secs

     total energy              =   -9106.02148878 Ry
     estimated scf accuracy    <      46.89329553 Ry

     iteration #  3     ecut=    60.00 Ry     beta= 0.20
     Davidson diagonalization with overlap
     ethr =  3.68E-03,  avg # of iterations =  2.0

     negative rho (up, down):  5.404E-02 0.000E+00

     total cpu time spent up to now is      178.1 secs

     total energy              =   -9106.65450727 Ry
     estimated scf accuracy    <     117.78407700 Ry

     iteration #  4     ecut=    60.00 Ry     beta= 0.20
     Davidson diagonalization with overlap
     ethr =  3.68E-03,  avg # of iterations =  1.0

     negative rho (up, down):  5.510E-02 0.000E+00

     total cpu time spent up to now is      215.1 secs

     total energy              =   -9109.84458330 Ry
     estimated scf accuracy    <       2.51764367 Ry

     iteration #  5     ecut=    60.00 Ry     beta= 0.20
     Davidson diagonalization with overlap
     ethr =  1.14E-03,  avg # of iterations =  1.0

     negative rho (up, down):  5.611E-02 0.000E+00

     total cpu time spent up to now is      252.4 secs

     total energy              =   -9109.86037530 Ry
     estimated scf accuracy    <       1.44933576 Ry

     iteration #  6     ecut=    60.00 Ry     beta= 0.20
     Davidson diagonalization with overlap
     ethr =  6.59E-04,  avg # of iterations =  1.0

     negative rho (up, down):  5.823E-02 0.000E+00

     total cpu time spent up to now is      289.7 secs

     total energy              =   -9109.75525897 Ry
     estimated scf accuracy    <       1.00241695 Ry

     iteration #  7     ecut=    60.00 Ry     beta= 0.20
     Davidson diagonalization with overlap
     ethr =  4.56E-04,  avg # of iterations =  1.0

     negative rho (up, down):  6.128E-02 0.000E+00

     total cpu time spent up to now is      326.6 secs

     total energy              =   -9109.71821057 Ry
     estimated scf accuracy    <       0.33291609 Ry

     iteration #  8     ecut=    60.00 Ry     beta= 0.20
     Davidson diagonalization with overlap
     ethr =  1.51E-04,  avg # of iterations =  5.5

     negative rho (up, down):  6.212E-02 0.000E+00

     total cpu time spent up to now is      364.7 secs

     total energy              =   -9109.77209510 Ry
     estimated scf accuracy    <       0.32141944 Ry

     iteration #  9     ecut=    60.00 Ry     beta= 0.20
     Davidson diagonalization with overlap
     ethr =  1.46E-04,  avg # of iterations =  1.0

     negative rho (up, down):  6.271E-02 0.000E+00

     total cpu time spent up to now is      402.2 secs

     total energy              =   -9109.74486947 Ry
     estimated scf accuracy    <       0.17615952 Ry

     iteration # 10     ecut=    60.00 Ry     beta= 0.20
     Davidson diagonalization with overlap
     ethr =  8.01E-05,  avg # of iterations =  2.2

     negative rho (up, down):  6.346E-02 0.000E+00

     total cpu time spent up to now is      439.5 secs

     total energy              =   -9109.76411875 Ry
     estimated scf accuracy    <       0.01759038 Ry

     iteration # 11     ecut=    60.00 Ry     beta= 0.20
     Davidson diagonalization with overlap
     c_bands:  1 eigenvalues not converged
     c_bands:  2 eigenvalues not converged
     c_bands:  1 eigenvalues not converged
     c_bands:  1 eigenvalues not converged
     c_bands:  1 eigenvalues not converged
     ethr =  8.00E-06,  avg # of iterations = 15.7

     negative rho (up, down):  6.408E-02 0.000E+00

     total cpu time spent up to now is      479.0 secs

     total energy              =   -9109.76419950 Ry
     estimated scf accuracy    <       0.02342531 Ry

     iteration # 12     ecut=    60.00 Ry     beta= 0.20
     Davidson diagonalization with overlap
     c_bands:  2 eigenvalues not converged
     c_bands:  1 eigenvalues not converged
     ethr =  8.00E-06,  avg # of iterations =  6.4

     negative rho (up, down):  6.456E-02 0.000E+00

     total cpu time spent up to now is      517.0 secs

     total energy              =   -9109.76353686 Ry
     estimated scf accuracy    <       0.00867323 Ry

     iteration # 13     ecut=    60.00 Ry     beta= 0.20
     Davidson diagonalization with overlap
     ethr =  3.94E-06,  avg # of iterations =  4.6

     negative rho (up, down):  6.518E-02 0.000E+00

     total cpu time spent up to now is      555.2 secs

     total energy              =   -9109.76406699 Ry
     estimated scf accuracy    <       0.00359016 Ry

     iteration # 14     ecut=    60.00 Ry     beta= 0.20
     Davidson diagonalization with overlap
     ethr =  1.63E-06,  avg # of iterations =  2.5

     negative rho (up, down):  6.532E-02 0.000E+00

     total cpu time spent up to now is      592.4 secs

     total energy              =   -9109.76426622 Ry
     estimated scf accuracy    <       0.00047372 Ry

     iteration # 15     ecut=    60.00 Ry     beta= 0.20
     Davidson diagonalization with overlap
     ethr =  2.15E-07,  avg # of iterations =  2.0

     negative rho (up, down):  6.545E-02 0.000E+00

     total cpu time spent up to now is      629.6 secs

     total energy              =   -9109.76430059 Ry
     estimated scf accuracy    <       0.00013941 Ry

     iteration # 16     ecut=    60.00 Ry     beta= 0.20
     Davidson diagonalization with overlap
     ethr =  6.34E-08,  avg # of iterations =  2.0

     negative rho (up, down):  6.549E-02 0.000E+00

     total cpu time spent up to now is      666.9 secs

     total energy              =   -9109.76431712 Ry
     estimated scf accuracy    <       0.00005744 Ry

     iteration # 17     ecut=    60.00 Ry     beta= 0.20
     Davidson diagonalization with overlap
     ethr =  2.61E-08,  avg # of iterations =  1.8

     negative rho (up, down):  6.547E-02 0.000E+00

     total cpu time spent up to now is      704.4 secs

     total energy              =   -9109.76431680 Ry
     estimated scf accuracy    <       0.00002989 Ry

     iteration # 18     ecut=    60.00 Ry     beta= 0.20
     Davidson diagonalization with overlap
     ethr =  1.36E-08,  avg # of iterations =  2.0

     negative rho (up, down):  6.551E-02 0.000E+00

     total cpu time spent up to now is      742.0 secs

     total energy              =   -9109.76432006 Ry
     estimated scf accuracy    <       0.00003103 Ry

     iteration # 19     ecut=    60.00 Ry     beta= 0.20
     Davidson diagonalization with overlap
     ethr =  1.36E-08,  avg # of iterations =  1.0

     negative rho (up, down):  6.547E-02 0.000E+00

     total cpu time spent up to now is      779.0 secs

     total energy              =   -9109.76432159 Ry
     estimated scf accuracy    <       0.00000808 Ry

     iteration # 20     ecut=    60.00 Ry     beta= 0.20
     Davidson diagonalization with overlap
     ethr =  3.67E-09,  avg # of iterations =  2.0

     negative rho (up, down):  6.546E-02 0.000E+00

     total cpu time spent up to now is      816.3 secs

     total energy              =   -9109.76432222 Ry
     estimated scf accuracy    <       0.00000524 Ry

     iteration # 21     ecut=    60.00 Ry     beta= 0.20
     Davidson diagonalization with overlap
     ethr =  2.38E-09,  avg # of iterations =  1.0

     negative rho (up, down):  6.545E-02 0.000E+00

     total cpu time spent up to now is      854.2 secs

     total energy              =   -9109.76432250 Ry
     estimated scf accuracy    <       0.00000152 Ry

     iteration # 22     ecut=    60.00 Ry     beta= 0.20
     Davidson diagonalization with overlap
     ethr =  6.92E-10,  avg # of iterations =  2.0

     negative rho (up, down):  6.541E-02 0.000E+00

     total cpu time spent up to now is      891.4 secs

     total energy              =   -9109.76432258 Ry
     estimated scf accuracy    <       0.00000103 Ry

     iteration # 23     ecut=    60.00 Ry     beta= 0.20
     Davidson diagonalization with overlap
     ethr =  4.68E-10,  avg # of iterations =  1.4

     negative rho (up, down):  6.538E-02 0.000E+00

     total cpu time spent up to now is      928.7 secs

     total energy              =   -9109.76432261 Ry
     estimated scf accuracy    <       0.00000036 Ry

     iteration # 24     ecut=    60.00 Ry     beta= 0.20
     Davidson diagonalization with overlap
     ethr =  1.64E-10,  avg # of iterations =  2.1

     negative rho (up, down):  6.537E-02 0.000E+00

     total cpu time spent up to now is      965.9 secs

     total energy              =   -9109.76432264 Ry
     estimated scf accuracy    <       0.00000112 Ry

     iteration # 25     ecut=    60.00 Ry     beta= 0.20
     Davidson diagonalization with overlap
     ethr =  1.64E-10,  avg # of iterations =  1.0

     negative rho (up, down):  6.535E-02 0.000E+00

     total cpu time spent up to now is     1003.1 secs

     total energy              =   -9109.76432269 Ry
     estimated scf accuracy    <       0.00000017 Ry

     iteration # 26     ecut=    60.00 Ry     beta= 0.20
     Davidson diagonalization with overlap
     ethr =  7.74E-11,  avg # of iterations =  1.2

     negative rho (up, down):  6.534E-02 0.000E+00

     total cpu time spent up to now is     1040.3 secs

     total energy              =   -9109.76432271 Ry
     estimated scf accuracy    <       0.00000005 Ry

     iteration # 27     ecut=    60.00 Ry     beta= 0.20
     Davidson diagonalization with overlap
     ethr =  2.14E-11,  avg # of iterations =  2.0

     negative rho (up, down):  6.533E-02 0.000E+00

     total cpu time spent up to now is     1077.6 secs

     total energy              =   -9109.76432272 Ry
     estimated scf accuracy    <       0.00000002 Ry

     iteration # 28     ecut=    60.00 Ry     beta= 0.20
     Davidson diagonalization with overlap
     ethr =  7.17E-12,  avg # of iterations =  2.6

     negative rho (up, down):  6.531E-02 0.000E+00

     total cpu time spent up to now is     1115.3 secs

     End of self-consistent calculation

          k = 0.0000 0.0000 0.0000 ( 90895 PWs)   bands (ev):

  -103.8573-103.7767-103.5540-103.5234-103.2199-102.8198 -69.3868 -68.9472
   -68.8788 -68.8460 -64.4046 -64.3419 -64.2856 -64.1745 -64.1265 -64.1191
   -64.1031 -64.0438 -63.9594 -63.8933 -63.8480 -63.7937 -63.7209 -63.6777
   -63.5081 -63.3150 -63.2526 -63.1660 -35.9200 -35.7513 -35.7248 -35.4242
   -35.4072 -35.3756 -35.3675 -35.3151 -35.3127 -35.3103 -35.2871 -35.2859
   -13.1815 -12.9622 -12.6347 -12.4262 -12.2892 -12.0677 -12.0163 -11.8866
   -11.7374 -11.6984  -6.4392  -6.2188  -5.9422  -5.8349  -5.6987  -5.5313
    -5.3247  -4.9093  -4.7788  -4.4520  -4.2699  -4.1653  -4.0912  -4.0318
    -3.9687  -3.8640  -3.8531  -3.6520  -3.5739  -3.4551  -3.4366  -3.2311
    -3.0836  -2.9567  -2.8378  -2.8105  -2.8029  -2.7113  -2.6124  -2.4881
    -2.4577  -2.4377  -2.3365  -2.2647  -2.1789  -2.1408  -2.0360  -1.9619
    -1.8976  -1.8295  -1.8261  -1.7248  -1.5966  -1.5367  -1.5233  -1.4467
    -1.4425  -1.3919  -1.2930  -1.2673  -1.2429  -1.1626  -1.0379  -0.9533
    -0.8430  -0.8355  -0.7579  -0.6201  -0.3898  -0.3042  -0.1454   0.1770
     0.2336   0.4172   0.7964   0.9031   0.9367   1.0132   1.1038   1.1706
     1.2288   1.5345   1.5580   1.9881   2.0772   2.1182   2.4687   2.8385
     2.9367   3.0729   3.1020   3.1804

          k = 0.0000 0.5109 0.0000 ( 90895 PWs)   bands (ev):

  -103.8572-103.7768-103.5539-103.5235-103.2199-102.8198 -69.3866 -68.9471
   -68.8787 -68.8458 -64.4046 -64.3421 -64.2851 -64.1768 -64.1244 -64.1191
   -64.1032 -64.0439 -63.9588 -63.8962 -63.8455 -63.7939 -63.7209 -63.6777
   -63.5081 -63.3150 -63.2527 -63.1661 -35.9194 -35.7581 -35.7239 -35.4235
   -35.4063 -35.3826 -35.3667 -35.3174 -35.3143 -35.3117 -35.2941 -35.2852
   -13.0885 -12.8702 -12.5544 -12.3612 -12.2336 -12.0103 -11.9613 -11.8396
   -11.6999 -11.6395  -6.3560  -6.1354  -5.8451  -5.7406  -5.6142  -5.4278
    -5.2368  -4.8465  -4.7135  -4.4414  -4.2955  -4.2258  -4.1669  -4.1196
    -4.0295  -3.9822  -3.8618  -3.6078  -3.5625  -3.4815  -3.4372  -3.2247
    -3.1748  -3.1435  -2.9454  -2.9158  -2.8763  -2.8262  -2.7799  -2.6045
    -2.5164  -2.4390  -2.4219  -2.3093  -2.2313  -2.1387  -2.0614  -2.0562
    -2.0494  -1.9183  -1.8755  -1.8110  -1.7439  -1.6994  -1.6382  -1.5452
    -1.5181  -1.4579  -1.3608  -1.2971  -1.2588  -1.1511  -1.1332  -0.9592
    -0.8787  -0.8583  -0.7699  -0.7120  -0.4054  -0.2188  -0.1332   0.1819
     0.2806   0.3597   0.6342   0.8328   0.8988   0.9050   1.0823   1.1878
     1.2049   1.4524   1.6484   1.7031   1.8680   2.1591   2.3525   2.4769
     2.6306   2.6915   2.7870   3.1150

          k = 0.0000 1.0219 0.0000 ( 90819 PWs)   bands (ev):

  -103.8571-103.7768-103.5537-103.5237-103.2199-102.8198 -69.3862 -68.9467
   -68.8783 -68.8454 -64.4047 -64.3425 -64.2836 -64.1821 -64.1198 -64.1191
   -64.1034 -64.0443 -63.9566 -63.9031 -63.8399 -63.7947 -63.7208 -63.6778
   -63.5081 -63.3150 -63.2527 -63.1660 -35.9179 -35.7756 -35.7214 -35.4218
   -35.4037 -35.4009 -35.3645 -35.3356 -35.3133 -35.3115 -35.3088 -35.2836
   -12.8230 -12.6087 -12.3315 -12.1912 -12.0738 -11.8517 -11.8096 -11.7072
   -11.5998 -11.4773  -6.1482  -5.9251  -5.6032  -5.5353  -5.3831  -5.1770
    -5.0288  -4.8798  -4.6256  -4.5731  -4.4725  -4.3815  -4.3406  -4.2514
    -4.1890  -4.0507  -3.9287  -3.8171  -3.7043  -3.6582  -3.5588  -3.5180
    -3.3753  -3.2649  -3.1847  -3.1029  -3.0441  -2.9879  -2.9158  -2.8181
    -2.6939  -2.6632  -2.6163  -2.5535  -2.5027  -2.3659  -2.3049  -2.2044
    -2.1469  -2.1044  -1.9908  -1.9228  -1.8500  -1.7839  -1.7734  -1.6767
    -1.6001  -1.5261  -1.4942  -1.4571  -1.2792  -1.2288  -1.1627  -1.1409
    -1.0520  -0.9511  -0.8171  -0.7157  -0.5886  -0.3891   0.0595   0.2831
     0.3775   0.5340   0.6274   0.7330   0.7758   0.8726   0.9826   1.0781
     1.2514   1.3694   1.4138   1.6402   1.8412   1.9444   2.0895   2.2335
     2.3405   2.4878   2.9833   3.5091

          k = 0.0000 1.5328 0.0000 ( 90745 PWs)   bands (ev):

  -103.8570-103.7770-103.5533-103.5241-103.2199-102.8198 -69.3857 -68.9461
   -68.8778 -68.8449 -64.4048 -64.3431 -64.2816 -64.1881 -64.1191 -64.1148
   -64.1036 -64.0447 -63.9533 -63.9113 -63.8338 -63.7957 -63.7209 -63.6777
   -63.5082 -63.3150 -63.2527 -63.1660 -35.9160 -35.7973 -35.7182 -35.4239
   -35.4193 -35.4004 -35.3621 -35.3578 -35.3349 -35.3093 -35.3058 -35.2815
   -12.4315 -12.2286 -12.0348 -11.9717 -11.8422 -11.6599 -11.5794 -11.5249
   -11.4701 -11.2631  -6.0286  -5.8221  -5.6808  -5.5314  -5.3392  -5.2254
    -5.1167  -5.0473  -4.8475  -4.6579  -4.5878  -4.3886  -4.3584  -4.3124
    -4.3025  -4.1985  -4.0767  -3.9434  -3.9005  -3.7661  -3.6924  -3.6772
    -3.6546  -3.4342  -3.2624  -3.2558  -3.1803  -3.1065  -3.0106  -2.9247
    -2.8997  -2.8155  -2.7087  -2.6716  -2.6372  -2.4842  -2.3816  -2.3365
    -2.2623  -2.2235  -2.1348  -2.0560  -1.9717  -1.9187  -1.8980  -1.7534
    -1.7013  -1.6344  -1.5367  -1.4836  -1.4756  -1.3839  -1.3024  -1.1778
    -1.1457  -1.0837  -0.9376  -0.8167  -0.7508  -0.5962   0.2124   0.2602
     0.3618   0.4981   0.7779   0.8111   0.9780   1.0288   1.0622   1.1879
     1.2665   1.3360   1.4963   1.6493   1.7899   2.1355   2.1960   2.3529
     2.5914   2.6290   3.0151   3.2907

          k = 0.0000 2.0438 0.0000 ( 90557 PWs)   bands (ev):

  -103.8569-103.7771-103.5530-103.5243-103.2199-102.8198 -69.3853 -68.9457
   -68.8774 -68.8445 -64.4049 -64.3435 -64.2796 -64.1924 -64.1190 -64.1111
   -64.1038 -64.0450 -63.9495 -63.9182 -63.8291 -63.7967 -63.7208 -63.6777
   -63.5080 -63.3149 -63.2526 -63.1659 -35.9145 -35.8147 -35.7157 -35.4417
   -35.4179 -35.3978 -35.3763 -35.3595 -35.3530 -35.3072 -35.3032 -35.2798
   -12.0197 -11.8636 -11.8088 -11.7266 -11.6108 -11.5005 -11.4094 -11.3596
   -11.3330 -11.0888  -6.3464  -6.2897  -6.1265  -6.1189  -5.5161  -5.2960
    -5.1885  -5.0633  -4.9850  -4.8548  -4.6459  -4.4968  -4.4061  -4.1692
    -4.0937  -4.0143  -3.8992  -3.8541  -3.8002  -3.7686  -3.7232  -3.6192
    -3.5850  -3.5314  -3.4111  -3.3785  -3.3266  -3.1236  -3.0902  -3.0067
    -2.8488  -2.7785  -2.7536  -2.7042  -2.5687  -2.5083  -2.4698  -2.4229
    -2.3531  -2.2842  -2.1954  -2.1811  -2.1207  -2.0675  -2.0238  -1.8997
    -1.7793  -1.6700  -1.6133  -1.5172  -1.5034  -1.4744  -1.3571  -1.2898
    -1.1956  -1.1511  -1.0914  -1.0140  -0.8499  -0.7729   0.0289   0.1387
     0.4500   0.5656   0.8170   0.8902   0.9017   1.2384   1.2968   1.4433
     1.5516   1.5889   1.6900   1.7650   1.8827   2.0752   2.3016   2.4401
     2.7246   2.7674   2.9391   3.0645

          k = 0.0000-2.5547 0.0000 ( 90506 PWs)   bands (ev):

  -103.8568-103.7771-103.5529-103.5244-103.2199-102.8198 -69.3852 -68.9456
   -68.8772 -68.8443 -64.4050 -64.3437 -64.2787 -64.1940 -64.1191 -64.1098
   -64.1039 -64.0453 -63.9475 -63.9211 -63.8275 -63.7973 -63.7208 -63.6777
   -63.5079 -63.3150 -63.2524 -63.1660 -35.9139 -35.8213 -35.7148 -35.4486
   -35.4172 -35.3968 -35.3832 -35.3599 -35.3587 -35.3063 -35.3023 -35.2791
   -11.8144 -11.7691 -11.6828 -11.5399 -11.5177 -11.4789 -11.3627 -11.2964
   -11.2657 -11.0286  -6.5764  -6.5248  -6.3597  -6.3535  -5.7054  -5.3498
    -5.2205  -5.1339  -5.0827  -5.0522  -4.4460  -4.3874  -4.3077  -4.1426
    -4.0690  -4.0002  -3.8103  -3.8067  -3.7673  -3.7582  -3.6906  -3.5716
    -3.5156  -3.4345  -3.4247  -3.4053  -3.2043  -3.1858  -3.1825  -3.1131
    -2.7848  -2.7561  -2.6889  -2.6804  -2.5983  -2.5956  -2.4995  -2.3891
    -2.3676  -2.3011  -2.2217  -2.1982  -2.1872  -2.1089  -2.0857  -2.0074
    -1.8128  -1.7019  -1.5613  -1.5424  -1.4748  -1.4718  -1.4500  -1.3841
    -1.2282  -1.1770  -1.1368  -1.0926  -0.9576  -0.8336  -0.0642   0.1001
     0.5339   0.5604   0.8296   0.8406   1.0240   1.0489   1.2950   1.5135
     1.6783   1.8218   1.8601   1.9302   2.0247   2.1034   2.2106   2.2558
     2.6380   2.6637   2.8839   2.9347

          k =-0.5000 0.0000 0.0000 ( 90892 PWs)   bands (ev):

  -103.8573-103.7767-103.5540-103.5234-103.2199-102.8198 -69.3868 -68.9472
   -68.8788 -68.8460 -64.4045 -64.3418 -64.2857 -64.1746 -64.1265 -64.1190
   -64.1030 -64.0438 -63.9595 -63.8933 -63.8480 -63.7937 -63.7208 -63.6778
   -63.5081 -63.3150 -63.2527 -63.1659 -35.9200 -35.7513 -35.7248 -35.4242
   -35.4072 -35.3756 -35.3675 -35.3151 -35.3127 -35.3104 -35.2871 -35.2859
   -13.1756 -12.9803 -12.6050 -12.4300 -12.2937 -12.1114 -12.0133 -11.8257
   -11.7606 -11.7044  -6.4327  -6.2334  -5.9404  -5.8761  -5.6884  -5.4758
    -5.2652  -4.9450  -4.8256  -4.5901  -4.1697  -4.0912  -4.0671  -4.0480
    -3.9467  -3.8533  -3.8333  -3.6518  -3.5867  -3.4658  -3.4364  -3.3572
    -3.0849  -2.9565  -2.8687  -2.8043  -2.7874  -2.7224  -2.6021  -2.4606
    -2.4213  -2.3971  -2.3405  -2.2518  -2.1853  -2.1373  -2.0684  -2.0121
    -1.9085  -1.8451  -1.7875  -1.7035  -1.5756  -1.5449  -1.5246  -1.4424
    -1.4303  -1.3852  -1.3061  -1.2776  -1.2336  -1.1644  -0.9695  -0.9616
    -0.8780  -0.8321  -0.8066  -0.5965  -0.3699  -0.3060  -0.1670   0.1204
     0.3307   0.4925   0.7103   0.8406   0.8957   0.9964   1.1157   1.1370
     1.1852   1.5525   1.6736   2.0020   2.0314   2.0649   2.5367   2.9292
     2.9353   3.0458   3.0923   3.1540

          k =-0.5000 0.5109 0.0000 ( 90858 PWs)   bands (ev):

  -103.8572-103.7768-103.5539-103.5235-103.2199-102.8198 -69.3866 -68.9471
   -68.8787 -68.8458 -64.4046 -64.3420 -64.2851 -64.1768 -64.1244 -64.1190
   -64.1031 -64.0439 -63.9587 -63.8963 -63.8455 -63.7939 -63.7208 -63.6777
   -63.5081 -63.3150 -63.2527 -63.1660 -35.9194 -35.7581 -35.7239 -35.4235
   -35.4063 -35.3826 -35.3667 -35.3174 -35.3143 -35.3117 -35.2941 -35.2852
   -13.0829 -12.8878 -12.5269 -12.3610 -12.2390 -12.0548 -11.9584 -11.7804
   -11.7228 -11.6443  -6.3495  -6.1494  -5.8432  -5.7806  -5.6005  -5.3752
    -5.1792  -4.8579  -4.8007  -4.5664  -4.2330  -4.2274  -4.1204  -4.0927
    -3.9652  -3.9145  -3.8644  -3.6824  -3.5326  -3.5086  -3.4505  -3.2872
    -3.1693  -3.1601  -2.9488  -2.9348  -2.8975  -2.8425  -2.6962  -2.6339
    -2.4808  -2.4297  -2.3988  -2.3015  -2.2363  -2.1537  -2.1285  -2.0487
    -2.0132  -1.9385  -1.9015  -1.7775  -1.7111  -1.6880  -1.6689  -1.5502
    -1.5187  -1.4389  -1.3566  -1.3228  -1.1856  -1.1478  -1.1026  -1.0284
    -0.9001  -0.8532  -0.7678  -0.7232  -0.4068  -0.1854  -0.1221   0.1369
     0.3458   0.4090   0.6099   0.8268   0.8607   0.9040   1.0696   1.1254
     1.1504   1.4538   1.6866   1.7159   1.8724   2.0748   2.4072   2.4849
     2.6215   2.7172   2.7867   3.2236

          k =-0.5000 1.0219 0.0000 ( 90798 PWs)   bands (ev):

  -103.8571-103.7768-103.5537-103.5237-103.2199-102.8198 -69.3862 -68.9467
   -68.8783 -68.8454 -64.4047 -64.3425 -64.2836 -64.1822 -64.1197 -64.1190
   -64.1033 -64.0442 -63.9567 -63.9032 -63.8398 -63.7946 -63.7208 -63.6777
   -63.5082 -63.3149 -63.2528 -63.1660 -35.9179 -35.7756 -35.7214 -35.4218
   -35.4037 -35.4009 -35.3645 -35.3356 -35.3133 -35.3115 -35.3088 -35.2836
   -12.8182 -12.6244 -12.3120 -12.1819 -12.0795 -11.8917 -11.8105 -11.6538
   -11.6221 -11.4794  -6.1408  -5.9382  -5.6016  -5.5532  -5.3677  -5.1376
    -5.0138  -4.9082  -4.6518  -4.6301  -4.4869  -4.3926  -4.3192  -4.2852
    -4.0900  -3.9388  -3.9022  -3.8222  -3.7659  -3.7088  -3.5449  -3.5006
    -3.3767  -3.2764  -3.1944  -3.1628  -3.0854  -2.9721  -2.8928  -2.7877
    -2.7162  -2.6882  -2.5970  -2.5456  -2.4894  -2.3867  -2.3141  -2.1964
    -2.1282  -2.0950  -1.9910  -1.9161  -1.8391  -1.8205  -1.7440  -1.7158
    -1.5501  -1.5142  -1.4547  -1.4347  -1.3954  -1.2445  -1.1857  -1.1329
    -1.0522  -0.9599  -0.7562  -0.6912  -0.5859  -0.3849   0.0914   0.2361
     0.4359   0.5120   0.6490   0.7501   0.7611   0.9175   0.9928   1.0755
     1.1030   1.2946   1.4668   1.6045   1.8485   1.9897   2.1054   2.2312
     2.3002   2.4596   3.0301   3.5690

          k =-0.5000 1.5328 0.0000 ( 90742 PWs)   bands (ev):

  -103.8570-103.7770-103.5533-103.5241-103.2199-102.8198 -69.3857 -68.9461
   -68.8778 -68.8449 -64.4048 -64.3431 -64.2816 -64.1881 -64.1190 -64.1148
   -64.1036 -64.0447 -63.9534 -63.9113 -63.8338 -63.7958 -63.7208 -63.6778
   -63.5082 -63.3150 -63.2527 -63.1660 -35.9160 -35.7973 -35.7182 -35.4239
   -35.4193 -35.4004 -35.3621 -35.3578 -35.3349 -35.3093 -35.3058 -35.2815
   -12.4283 -12.2400 -12.0311 -11.9588 -11.8427 -11.6611 -11.6086 -11.4923
   -11.4802 -11.2631  -6.0224  -5.8389  -5.6588  -5.5107  -5.3519  -5.2413
    -5.1769  -5.0146  -4.8442  -4.6657  -4.6086  -4.3938  -4.3649  -4.2665
    -4.2410  -4.1249  -4.0959  -4.0380  -3.9056  -3.8062  -3.7130  -3.6514
    -3.5311  -3.4494  -3.3352  -3.2354  -3.1701  -3.1298  -3.0776  -2.9342
    -2.8303  -2.7670  -2.7541  -2.6845  -2.6488  -2.4941  -2.3688  -2.3259
    -2.2724  -2.2094  -2.1575  -2.0799  -1.9540  -1.9221  -1.8628  -1.7489
    -1.6984  -1.6291  -1.5365  -1.4879  -1.4658  -1.4378  -1.2846  -1.1797
    -1.1476  -1.0554  -0.9450  -0.8339  -0.7475  -0.5981   0.2219   0.2343
     0.4506   0.5565   0.7521   0.8517   0.9533   1.0067   1.0549   1.1136
     1.2475   1.3637   1.4886   1.5661   1.8746   2.0966   2.2769   2.3596
     2.4712   2.5812   3.1069   3.3596

          k =-0.5000 2.0438 0.0000 ( 90604 PWs)   bands (ev):

  -103.8569-103.7771-103.5530-103.5243-103.2199-102.8198 -69.3853 -68.9457
   -68.8774 -68.8445 -64.4049 -64.3436 -64.2796 -64.1925 -64.1191 -64.1111
   -64.1038 -64.0451 -63.9495 -63.9183 -63.8292 -63.7967 -63.7208 -63.6777
   -63.5081 -63.3149 -63.2526 -63.1660 -35.9145 -35.8147 -35.7157 -35.4417
   -35.4179 -35.3978 -35.3763 -35.3595 -35.3530 -35.3072 -35.3032 -35.2798
   -12.0188 -11.8662 -11.8081 -11.7272 -11.6107 -11.4915 -11.4200 -11.3591
   -11.3307 -11.0888  -6.3584  -6.2987  -6.1087  -6.0997  -5.5284  -5.2999
    -5.2013  -5.0828  -4.9772  -4.8167  -4.6700  -4.4914  -4.3918  -4.1745
    -4.0923  -4.0507  -3.8975  -3.8605  -3.7940  -3.7773  -3.6990  -3.6437
    -3.5699  -3.5057  -3.4103  -3.3574  -3.2961  -3.1244  -3.0952  -3.0554
    -2.8252  -2.7466  -2.7226  -2.6914  -2.6600  -2.5264  -2.4561  -2.4448
    -2.3575  -2.2931  -2.2227  -2.1838  -2.0909  -2.0640  -1.9832  -1.9043
    -1.7832  -1.6658  -1.6175  -1.5350  -1.5034  -1.4861  -1.3077  -1.2774
    -1.2486  -1.1643  -1.0743  -1.0188  -0.8434  -0.7861   0.0441   0.1334
     0.4798   0.6201   0.8230   0.8504   0.9921   1.1463   1.2463   1.4480
     1.5208   1.6159   1.6913   1.7828   1.8633   2.0097   2.4279   2.4944
     2.6037   2.7217   2.9048   3.0702

          k =-0.5000-2.5547 0.0000 ( 90512 PWs)   bands (ev):

  -103.8568-103.7771-103.5529-103.5244-103.2199-102.8198 -69.3852 -68.9456
   -68.8772 -68.8443 -64.4050 -64.3438 -64.2787 -64.1940 -64.1191 -64.1098
   -64.1039 -64.0452 -63.9475 -63.9210 -63.8274 -63.7972 -63.7209 -63.6777
   -63.5079 -63.3149 -63.2524 -63.1660 -35.9139 -35.8213 -35.7148 -35.4486
   -35.4172 -35.3968 -35.3832 -35.3599 -35.3587 -35.3063 -35.3023 -35.2791
   -11.8144 -11.7691 -11.6827 -11.5401 -11.5176 -11.4781 -11.3640 -11.2966
   -11.2650 -11.0285  -6.5905  -6.5367  -6.3377  -6.3375  -5.7136  -5.3211
    -5.2723  -5.1281  -5.0644  -5.0604  -4.4608  -4.3809  -4.3190  -4.1026
    -4.0546  -3.9949  -3.8691  -3.8084  -3.7663  -3.7555  -3.6956  -3.5649
    -3.5158  -3.4971  -3.4463  -3.4055  -3.1892  -3.1420  -3.1227  -3.0052
    -2.7922  -2.7919  -2.6968  -2.6726  -2.6392  -2.6151  -2.5184  -2.3995
    -2.3722  -2.3182  -2.2540  -2.2018  -2.1455  -2.0878  -2.0737  -2.0006
    -1.8155  -1.7098  -1.5628  -1.5623  -1.4953  -1.4760  -1.4157  -1.3735
    -1.2655  -1.1824  -1.1357  -1.0716  -0.9574  -0.8292  -0.0591   0.1042
     0.5522   0.5891   0.8463   0.8489   0.9833   1.0216   1.2772   1.5392
     1.6612   1.7915   1.8000   1.9624   2.0839   2.1077   2.2490   2.3697
     2.4300   2.6092   2.9607   3.0477

     the Fermi energy is    -0.1725 ev

!    total energy              =   -9109.76432272 Ry
     total all-electron energy =     -9109.764323 Ry
     estimated scf accuracy    <          7.9E-09 Ry
     smearing contrib. (-TS)   =      -0.00018927 Ry
     internal energy E=F+TS    =   -9109.76413344 Ry

     The total energy is F=E-TS. E is the sum of the following terms:
     one-electron contribution =  -15777.47125906 Ry
     hartree contribution      =    7745.27833249 Ry
     xc contribution           =    -364.62973301 Ry
     ewald contribution        =    5554.71862182 Ry
     one-center paw contrib.   =   -6267.66009568 Ry

     convergence has been achieved in  28 iterations

     negative rho (up, down):  6.531E-02 0.000E+00

     Forces acting on atoms (cartesian axes, Ry/au):

     atom    1 type  1   force =     0.01852161    0.00000000    0.01179852
     atom    2 type  1   force =    -0.00316577    0.00000000   -0.00112035
     atom    3 type  1   force =    -0.02493623    0.00000000    0.00185914
     atom    4 type  1   force =    -0.01285762    0.00000000    0.00417373
     atom    5 type  2   force =     0.01301306    0.00000000    0.00246950
     atom    6 type  2   force =    -0.00044886    0.00000000   -0.00224358
     atom    7 type  2   force =     0.00061783    0.00000000   -0.00078629
     atom    8 type  2   force =     0.01621987    0.00000000   -0.00300219
     atom    9 type  2   force =     0.00355106    0.00000000    0.00195386
     atom   10 type  2   force =    -0.00070674    0.00000000   -0.01895193
     atom   11 type  3   force =     0.01679286    0.00000000   -0.00392635
     atom   12 type  3   force =     0.00059310    0.00000000    0.00011737
     atom   13 type  3   force =    -0.00019315    0.00000000   -0.00083475
     atom   14 type  3   force =    -0.01110201    0.00000000    0.00602319
     atom   15 type  3   force =     0.00378093    0.00000000   -0.00036967
     atom   16 type  3   force =    -0.00382994    0.00000000   -0.00049985
     atom   17 type  3   force =    -0.00159764    0.00000000   -0.00041977
     atom   18 type  3   force =     0.02064858    0.00000000   -0.02403983
     atom   19 type  3   force =    -0.03813597    0.00000000    0.02856369
     atom   20 type  3   force =     0.00323503    0.00000000   -0.00076444

     Total force =     0.076858     Total SCF correction =     0.000324


     Computing stress (Cartesian axis) and pressure


     negative rho (up, down):  6.531E-02 0.000E+00
          total   stress  (Ry/bohr**3)                   (kbar)     P=       -6.29
  -0.00005332   0.00000000   0.00000740           -7.84        0.00        1.09
   0.00000000  -0.00002420   0.00000000            0.00       -3.56        0.00
   0.00000740   0.00000000  -0.00005069            1.09        0.00       -7.46


     BFGS Geometry Optimization
     Energy error            =      0.0E+00 Ry
     Gradient error          =      3.8E-02 Ry/Bohr

     number of scf cycles    =   1
     number of bfgs steps    =   0

     energy             new  =   -9109.7643227162 Ry

     new trust radius        =       0.0476469992 bohr
     new conv_thr            =       0.0000000100 Ry


ATOMIC_POSITIONS (angstrom)
Ta              15.4016420383        0.9149235643       12.4500837398
Ta               6.5698752622        2.7447696811       12.5914034725
Ta               2.2519599285        0.9149235643       12.4446497755
Ta              11.0786493897        2.7447696811       12.5943651302
Ni              12.8712943730        0.9149235643       11.7629963962
Ni               4.0438625984        2.7447696811       13.2729566991
Ni               4.7927936666        0.9149235643       11.7610068730
Ni              13.6213437978        2.7447696811       13.2728123158
Ni               8.8302258063        0.9149235643       12.3692395352
Ni               0.0077029100        2.7447696811       12.6575808826
Te              14.2219287748        2.7447696811       10.5331790182
Te               5.3930357112        0.9149235643       14.5006342152
Te              10.5953309080        0.9149235643       10.5188921464
Te               1.7692751531        2.7447696811       14.5196822910
Te               3.4456894741        2.7447696811       10.5348379219
Te              12.2619628213        0.9149235643       14.5005280373
Te               7.0607729846        0.9149235643       10.5189491402
Te              15.8928286638        2.7447696811       14.5039457986
Te              -0.0118817632        0.9149235643       10.8527343187
Te               8.8302698647        2.7447696811       14.1977732923



     Writing config-only to output data dir /ddn/data/physics/eamoujaes/2D-Ta2Ni3Te5/ELASTIC/OUT/ta2ni3te5.save/ :
     XML data file
     NEW-OLD atomic charge density approx. for the potential

     negative rho (up, down):  6.533E-02 0.000E+00

     total cpu time spent up to now is     1210.8 secs

     Self-consistent Calculation

     iteration #  1     ecut=    60.00 Ry     beta= 0.20
     Davidson diagonalization with overlap
     ethr =  1.00E-06,  avg # of iterations =  7.0

     negative rho (up, down):  6.532E-02 0.000E+00

     total cpu time spent up to now is     1250.7 secs

     total energy              =   -9109.76935618 Ry
     estimated scf accuracy    <       0.00135408 Ry

     iteration #  2     ecut=    60.00 Ry     beta= 0.20
     Davidson diagonalization with overlap
     ethr =  6.15E-07,  avg # of iterations =  6.2

     negative rho (up, down):  6.532E-02 0.000E+00

     total cpu time spent up to now is     1288.5 secs

     total energy              =   -9109.76916280 Ry
     estimated scf accuracy    <       0.01614997 Ry

     iteration #  3     ecut=    60.00 Ry     beta= 0.20
     Davidson diagonalization with overlap
     ethr =  6.15E-07,  avg # of iterations =  2.6

     negative rho (up, down):  6.532E-02 0.000E+00

     total cpu time spent up to now is     1325.6 secs

     total energy              =   -9109.76977515 Ry
     estimated scf accuracy    <       0.00066101 Ry

     iteration #  4     ecut=    60.00 Ry     beta= 0.20
     Davidson diagonalization with overlap
     ethr =  3.00E-07,  avg # of iterations =  1.2

     negative rho (up, down):  6.532E-02 0.000E+00

     total cpu time spent up to now is     1362.7 secs

     total energy              =   -9109.76980375 Ry
     estimated scf accuracy    <       0.00022385 Ry

     iteration #  5     ecut=    60.00 Ry     beta= 0.20
     Davidson diagonalization with overlap
     ethr =  1.02E-07,  avg # of iterations =  1.8

     negative rho (up, down):  6.531E-02 0.000E+00

     total cpu time spent up to now is     1400.1 secs

     total energy              =   -9109.76980971 Ry
     estimated scf accuracy    <       0.00017780 Ry

     iteration #  6     ecut=    60.00 Ry     beta= 0.20
     Davidson diagonalization with overlap
     ethr =  8.08E-08,  avg # of iterations =  1.0

     negative rho (up, down):  6.531E-02 0.000E+00

     total cpu time spent up to now is     1436.9 secs

     total energy              =   -9109.76981568 Ry
     estimated scf accuracy    <       0.00004543 Ry

     iteration #  7     ecut=    60.00 Ry     beta= 0.20
     Davidson diagonalization with overlap
     ethr =  2.07E-08,  avg # of iterations =  2.0

     negative rho (up, down):  6.531E-02 0.000E+00

     total cpu time spent up to now is     1474.4 secs

     total energy              =   -9109.76982051 Ry
     estimated scf accuracy    <       0.00001596 Ry

     iteration #  8     ecut=    60.00 Ry     beta= 0.20
     Davidson diagonalization with overlap
     ethr =  7.25E-09,  avg # of iterations =  2.0

     negative rho (up, down):  6.530E-02 0.000E+00

     total cpu time spent up to now is     1511.6 secs

     total energy              =   -9109.76982291 Ry
     estimated scf accuracy    <       0.00001145 Ry

     iteration #  9     ecut=    60.00 Ry     beta= 0.20
     Davidson diagonalization with overlap
     ethr =  5.20E-09,  avg # of iterations =  2.0

     negative rho (up, down):  6.530E-02 0.000E+00

     total cpu time spent up to now is     1548.7 secs

     total energy              =   -9109.76982497 Ry
     estimated scf accuracy    <       0.00000331 Ry

     iteration # 10     ecut=    60.00 Ry     beta= 0.20
     Davidson diagonalization with overlap
     ethr =  1.51E-09,  avg # of iterations =  2.0

     negative rho (up, down):  6.530E-02 0.000E+00

     total cpu time spent up to now is     1586.6 secs

     total energy              =   -9109.76982576 Ry
     estimated scf accuracy    <       0.00000154 Ry

     iteration # 11     ecut=    60.00 Ry     beta= 0.20
     Davidson diagonalization with overlap
     ethr =  6.98E-10,  avg # of iterations =  2.0

     negative rho (up, down):  6.530E-02 0.000E+00

     total cpu time spent up to now is     1623.8 secs

     total energy              =   -9109.76982612 Ry
     estimated scf accuracy    <       0.00000046 Ry

     iteration # 12     ecut=    60.00 Ry     beta= 0.20
     Davidson diagonalization with overlap
     ethr =  2.10E-10,  avg # of iterations =  4.3

     negative rho (up, down):  6.530E-02 0.000E+00

     total cpu time spent up to now is     1661.6 secs

     total energy              =   -9109.76982617 Ry
     estimated scf accuracy    <       0.00000044 Ry

     iteration # 13     ecut=    60.00 Ry     beta= 0.20
     Davidson diagonalization with overlap
     ethr =  2.00E-10,  avg # of iterations =  1.0

     negative rho (up, down):  6.530E-02 0.000E+00

     total cpu time spent up to now is     1698.6 secs

     total energy              =   -9109.76982629 Ry
     estimated scf accuracy    <       0.00000022 Ry

     iteration # 14     ecut=    60.00 Ry     beta= 0.20
     Davidson diagonalization with overlap
     ethr =  1.01E-10,  avg # of iterations =  1.7

     negative rho (up, down):  6.530E-02 0.000E+00

     total cpu time spent up to now is     1736.0 secs

     total energy              =   -9109.76982633 Ry
     estimated scf accuracy    <       0.00000033 Ry

     iteration # 15     ecut=    60.00 Ry     beta= 0.20
     Davidson diagonalization with overlap
     ethr =  1.01E-10,  avg # of iterations =  1.0

     negative rho (up, down):  6.530E-02 0.000E+00

     total cpu time spent up to now is     1773.0 secs

     total energy              =   -9109.76982634 Ry
     estimated scf accuracy    <       0.00000019 Ry

     iteration # 16     ecut=    60.00 Ry     beta= 0.20
     Davidson diagonalization with overlap
     ethr =  8.84E-11,  avg # of iterations =  1.0

     negative rho (up, down):  6.530E-02 0.000E+00

     total cpu time spent up to now is     1810.1 secs

     total energy              =   -9109.76982636 Ry
     estimated scf accuracy    <       0.00000002 Ry

     iteration # 17     ecut=    60.00 Ry     beta= 0.20
     Davidson diagonalization with overlap
     ethr =  1.13E-11,  avg # of iterations =  3.3

     negative rho (up, down):  6.530E-02 0.000E+00

     total cpu time spent up to now is     1847.2 secs

     End of self-consistent calculation

          k = 0.0000 0.0000 0.0000 ( 90895 PWs)   bands (ev):

  -103.8428-103.7563-103.5490-103.5155-103.2245-102.8476 -69.3762 -68.9501
   -68.8793 -68.8575 -64.3897 -64.3202 -64.2730 -64.1534 -64.1114 -64.1097
   -64.0947 -64.0253 -63.9558 -63.8862 -63.8425 -63.7869 -63.7254 -63.6813
   -63.5134 -63.3426 -63.2855 -63.1886 -35.9098 -35.7448 -35.7148 -35.4242
   -35.4111 -35.3770 -35.3685 -35.3226 -35.3151 -35.3105 -35.2972 -35.2934
   -13.1723 -12.9528 -12.6316 -12.4156 -12.2856 -12.0693 -12.0178 -11.9002
   -11.7374 -11.7246  -6.4279  -6.2116  -5.9382  -5.8295  -5.6945  -5.5315
    -5.3243  -4.9013  -4.7763  -4.4418  -4.2702  -4.1655  -4.0649  -4.0259
    -3.9696  -3.8644  -3.8438  -3.6308  -3.5892  -3.4578  -3.4244  -3.2452
    -3.0669  -2.9492  -2.8372  -2.8076  -2.8071  -2.7091  -2.5966  -2.4778
    -2.4548  -2.4486  -2.3396  -2.2518  -2.2133  -2.1351  -2.0370  -1.9693
    -1.8980  -1.8562  -1.8286  -1.7089  -1.5838  -1.5412  -1.5229  -1.4523
    -1.4405  -1.3860  -1.2911  -1.2722  -1.2538  -1.1603  -1.0336  -0.9548
    -0.8469  -0.8466  -0.7610  -0.6214  -0.3920  -0.3041  -0.1484   0.1778
     0.2519   0.4196   0.7934   0.8962   0.9358   1.0124   1.1034   1.1585
     1.2256   1.5327   1.5606   1.9913   2.0841   2.1216   2.4992   2.8395
     2.9527   3.0806   3.1051   3.1750

          k = 0.0000 0.5109 0.0000 ( 90895 PWs)   bands (ev):

  -103.8427-103.7563-103.5489-103.5156-103.2245-102.8476 -69.3760 -68.9499
   -68.8791 -68.8573 -64.3898 -64.3205 -64.2725 -64.1558 -64.1114 -64.1075
   -64.0948 -64.0254 -63.9552 -63.8891 -63.8399 -63.7871 -63.7254 -63.6813
   -63.5135 -63.3426 -63.2856 -63.1886 -35.9092 -35.7516 -35.7138 -35.4235
   -35.4101 -35.3840 -35.3676 -35.3216 -35.3175 -35.3143 -35.3003 -35.2965
   -13.0792 -12.8609 -12.5507 -12.3508 -12.2298 -12.0116 -11.9632 -11.8531
   -11.6998 -11.6664  -6.3444  -6.1280  -5.8411  -5.7347  -5.6110  -5.4277
    -5.2364  -4.8361  -4.7109  -4.4301  -4.2887  -4.2123  -4.1626  -4.1114
    -4.0268  -3.9780  -3.8593  -3.5979  -3.5691  -3.4792  -3.4391  -3.2220
    -3.1748  -3.1286  -2.9475  -2.9163  -2.8765  -2.8411  -2.7745  -2.5938
    -2.5089  -2.4321  -2.4237  -2.3289  -2.2224  -2.1390  -2.0661  -2.0638
    -2.0511  -1.9243  -1.8768  -1.8129  -1.7329  -1.7036  -1.6433  -1.5463
    -1.5191  -1.4543  -1.3575  -1.2930  -1.2630  -1.1543  -1.1331  -0.9600
    -0.8825  -0.8687  -0.7688  -0.7236  -0.4085  -0.2206  -0.1320   0.1798
     0.2918   0.3656   0.6349   0.8288   0.8961   0.9063   1.0804   1.1826
     1.2059   1.4533   1.6513   1.7067   1.8638   2.1620   2.3598   2.4987
     2.6249   2.7034   2.7897   3.1171

          k = 0.0000 1.0219 0.0000 ( 90819 PWs)   bands (ev):

  -103.8426-103.7564-103.5487-103.5158-103.2244-102.8476 -69.3756 -68.9495
   -68.8787 -68.8569 -64.3898 -64.3210 -64.2709 -64.1614 -64.1113 -64.1026
   -64.0950 -64.0258 -63.9532 -63.8959 -63.8342 -63.7879 -63.7254 -63.6813
   -63.5135 -63.3426 -63.2856 -63.1886 -35.9077 -35.7692 -35.7113 -35.4219
   -35.4075 -35.4022 -35.3655 -35.3358 -35.3200 -35.3177 -35.3119 -35.2949
   -12.8134 -12.5996 -12.3256 -12.1826 -12.0689 -11.8504 -11.8144 -11.7203
   -11.6000 -11.5051  -6.1357  -5.9174  -5.5983  -5.5293  -5.3807  -5.1745
    -5.0274  -4.8618  -4.6198  -4.5577  -4.4561  -4.3760  -4.3357  -4.2459
    -4.1867  -4.0559  -3.9320  -3.8067  -3.7057  -3.6571  -3.5679  -3.5103
    -3.3995  -3.2641  -3.1845  -3.1046  -3.0452  -2.9865  -2.9173  -2.8104
    -2.6806  -2.6694  -2.6115  -2.5581  -2.5032  -2.3597  -2.3021  -2.2073
    -2.1472  -2.1047  -2.0020  -1.9178  -1.8458  -1.7805  -1.7630  -1.6767
    -1.6109  -1.5409  -1.4871  -1.4478  -1.2829  -1.2304  -1.1666  -1.1360
    -1.0552  -0.9678  -0.8185  -0.7211  -0.5906  -0.3993   0.0581   0.2924
     0.3795   0.5385   0.6215   0.7280   0.7724   0.8842   0.9832   1.0838
     1.2521   1.3711   1.4127   1.6377   1.8414   1.9459   2.1034   2.2300
     2.3382   2.4841   3.0132   3.5104

          k = 0.0000 1.5328 0.0000 ( 90745 PWs)   bands (ev):

  -103.8425-103.7565-103.5484-103.5161-103.2244-102.8476 -69.3751 -68.9490
   -68.8782 -68.8564 -64.3900 -64.3217 -64.2689 -64.1674 -64.1113 -64.0974
   -64.0952 -64.0262 -63.9503 -63.9039 -63.8280 -63.7889 -63.7254 -63.6813
   -63.5136 -63.3426 -63.2857 -63.1886 -35.9058 -35.7910 -35.7082 -35.4251
   -35.4194 -35.4042 -35.3631 -35.3580 -35.3411 -35.3158 -35.3093 -35.2928
   -12.4210 -12.2197 -12.0235 -11.9671 -11.8375 -11.6589 -11.5841 -11.5360
   -11.4722 -11.2923  -6.0145  -5.8139  -5.6636  -5.5265  -5.3319  -5.2223
    -5.1085  -5.0397  -4.8407  -4.6490  -4.5962  -4.3901  -4.3663  -4.3104
    -4.2943  -4.1946  -4.0763  -3.9392  -3.8938  -3.7645  -3.7051  -3.6831
    -3.6535  -3.4285  -3.2634  -3.2587  -3.1852  -3.0951  -3.0043  -2.9267
    -2.8944  -2.8172  -2.7122  -2.6676  -2.6432  -2.4805  -2.3783  -2.3325
    -2.2598  -2.2252  -2.1364  -2.0486  -1.9723  -1.9087  -1.8848  -1.7571
    -1.6995  -1.6302  -1.5581  -1.4818  -1.4750  -1.3815  -1.3060  -1.1793
    -1.1598  -1.0838  -0.9401  -0.8213  -0.7609  -0.6152   0.2160   0.2672
     0.3661   0.4947   0.7782   0.8089   0.9807   1.0342   1.0619   1.1842
     1.2707   1.3351   1.4973   1.6450   1.7868   2.1408   2.1989   2.3606
     2.5857   2.6281   3.0441   3.3002

          k = 0.0000 2.0438 0.0000 ( 90557 PWs)   bands (ev):

  -103.8424-103.7566-103.5481-103.5164-103.2244-102.8476 -69.3747 -68.9486
   -68.8778 -68.8560 -64.3900 -64.3222 -64.2670 -64.1717 -64.1113 -64.0954
   -64.0935 -64.0265 -63.9469 -63.9103 -63.8234 -63.7898 -63.7253 -63.6812
   -63.5134 -63.3425 -63.2855 -63.1885 -35.9043 -35.8085 -35.7056 -35.4430
   -35.4179 -35.4016 -35.3765 -35.3606 -35.3590 -35.3133 -35.3070 -35.2912
   -12.0057 -11.8550 -11.7982 -11.7202 -11.6055 -11.5036 -11.4113 -11.3582
   -11.3476 -11.1204  -6.3284  -6.2768  -6.1207  -6.1112  -5.5179  -5.2868
    -5.1878  -5.0806  -4.9830  -4.8562  -4.6396  -4.4937  -4.3978  -4.1667
    -4.0807  -4.0095  -3.8947  -3.8502  -3.7970  -3.7650  -3.7214  -3.6184
    -3.5857  -3.5319  -3.4124  -3.3767  -3.3291  -3.1166  -3.0888  -3.0091
    -2.8577  -2.7788  -2.7473  -2.7081  -2.5759  -2.4969  -2.4662  -2.4227
    -2.3509  -2.2775  -2.1949  -2.1759  -2.1143  -2.0522  -2.0183  -1.8963
    -1.7766  -1.6700  -1.6112  -1.5307  -1.4992  -1.4793  -1.3627  -1.3060
    -1.2010  -1.1504  -1.0978  -1.0218  -0.8622  -0.7975   0.0359   0.1402
     0.4539   0.5715   0.8161   0.8882   0.9050   1.2384   1.2976   1.4395
     1.5506   1.5891   1.6814   1.7627   1.8812   2.0759   2.3060   2.4524
     2.7287   2.7767   2.9397   3.0668

          k = 0.0000-2.5547 0.0000 ( 90506 PWs)   bands (ev):

  -103.8423-103.7567-103.5480-103.5165-103.2244-102.8476 -69.3746 -68.9485
   -68.8776 -68.8558 -64.3901 -64.3224 -64.2662 -64.1732 -64.1113 -64.0955
   -64.0922 -64.0268 -63.9452 -63.9128 -63.8217 -63.7904 -63.7253 -63.6813
   -63.5132 -63.3426 -63.2853 -63.1885 -35.9037 -35.8152 -35.7046 -35.4499
   -35.4173 -35.4006 -35.3833 -35.3659 -35.3598 -35.3123 -35.3062 -35.2905
   -11.7924 -11.7641 -11.6711 -11.5345 -11.5140 -11.4835 -11.3623 -11.2929
   -11.2834 -11.0624  -6.5594  -6.5122  -6.3520  -6.3481  -5.7093  -5.3508
    -5.2334  -5.1359  -5.0834  -5.0504  -4.4324  -4.3774  -4.2949  -4.1434
    -4.0606  -3.9940  -3.8089  -3.7973  -3.7645  -3.7530  -3.6924  -3.5767
    -3.5043  -3.4321  -3.4245  -3.4036  -3.2053  -3.1866  -3.1832  -3.1259
    -2.7912  -2.7549  -2.6878  -2.6720  -2.6048  -2.5863  -2.4967  -2.3847
    -2.3717  -2.2881  -2.2153  -2.1966  -2.1756  -2.1001  -2.0846  -2.0011
    -1.8078  -1.6961  -1.5618  -1.5488  -1.4742  -1.4737  -1.4580  -1.3847
    -1.2313  -1.2146  -1.1398  -1.1170  -0.9591  -0.8509  -0.0563   0.1006
     0.5471   0.5558   0.8305   0.8423   1.0208   1.0453   1.2982   1.5097
     1.6764   1.8227   1.8550   1.9334   2.0198   2.1053   2.2187   2.2567
     2.6443   2.6617   2.8827   2.9389

          k =-0.5000 0.0000 0.0000 ( 90892 PWs)   bands (ev):

  -103.8428-103.7563-103.5490-103.5155-103.2245-102.8476 -69.3762 -68.9501
   -68.8793 -68.8575 -64.3896 -64.3201 -64.2731 -64.1535 -64.1113 -64.1097
   -64.0946 -64.0253 -63.9559 -63.8862 -63.8425 -63.7869 -63.7253 -63.6814
   -63.5135 -63.3426 -63.2856 -63.1885 -35.9098 -35.7448 -35.7148 -35.4242
   -35.4111 -35.3770 -35.3685 -35.3226 -35.3151 -35.3105 -35.2972 -35.2934
   -13.1659 -12.9728 -12.5976 -12.4216 -12.2908 -12.1168 -12.0144 -11.8348
   -11.7624 -11.7301  -6.4210  -6.2266  -5.9362  -5.8730  -5.6844  -5.4724
    -5.2646  -4.9433  -4.8167  -4.5885  -4.1635  -4.0657  -4.0650  -4.0412
    -3.9415  -3.8440  -3.8397  -3.6305  -3.6040  -3.4697  -3.4241  -3.3683
    -3.0685  -2.9489  -2.8702  -2.8011  -2.7900  -2.7213  -2.5828  -2.4526
    -2.4362  -2.3884  -2.3450  -2.2400  -2.2195  -2.1332  -2.0723  -2.0155
    -1.9090  -1.8708  -1.7881  -1.6905  -1.5621  -1.5486  -1.5262  -1.4399
    -1.4357  -1.3759  -1.3086  -1.2812  -1.2465  -1.1621  -0.9699  -0.9628
    -0.8777  -0.8419  -0.8088  -0.5982  -0.3731  -0.3055  -0.1690   0.1220
     0.3497   0.4955   0.7076   0.8341   0.8902   0.9968   1.1100   1.1348
     1.1777   1.5553   1.6690   2.0066   2.0373   2.0705   2.5677   2.9311
     2.9513   3.0436   3.0971   3.1647

          k =-0.5000 0.5109 0.0000 ( 90858 PWs)   bands (ev):

  -103.8427-103.7563-103.5489-103.5156-103.2245-102.8476 -69.3760 -68.9499
   -68.8791 -68.8573 -64.3897 -64.3204 -64.2725 -64.1559 -64.1113 -64.1075
   -64.0947 -64.0254 -63.9552 -63.8891 -63.8399 -63.7871 -63.7253 -63.6813
   -63.5135 -63.3425 -63.2856 -63.1885 -35.9092 -35.7516 -35.7138 -35.4235
   -35.4101 -35.3840 -35.3676 -35.3216 -35.3175 -35.3143 -35.3003 -35.2965
   -13.0731 -12.8804 -12.5190 -12.3522 -12.2362 -12.0606 -11.9596 -11.7898
   -11.7230 -11.6715  -6.3374  -6.1425  -5.8389  -5.7772  -5.5972  -5.3715
    -5.1783  -4.8567  -4.7904  -4.5624  -4.2222  -4.2091  -4.1130  -4.0850
    -3.9620  -3.9072  -3.8654  -3.6776  -3.5481  -3.5002  -3.4547  -3.2848
    -3.1704  -3.1372  -2.9512  -2.9342  -2.9004  -2.8515  -2.6949  -2.6229
    -2.4773  -2.4215  -2.4003  -2.3172  -2.2280  -2.1587  -2.1320  -2.0522
    -2.0191  -1.9452  -1.9050  -1.7713  -1.7003  -1.6897  -1.6779  -1.5534
    -1.5199  -1.4321  -1.3519  -1.3255  -1.1912  -1.1498  -1.1011  -1.0273
    -0.9035  -0.8630  -0.7773  -0.7255  -0.4101  -0.1853  -0.1204   0.1354
     0.3488   0.4209   0.6103   0.8296   0.8548   0.9012   1.0680   1.1213
     1.1507   1.4555   1.6891   1.7156   1.8708   2.0795   2.4133   2.5039
     2.6190   2.7147   2.8054   3.2256

          k =-0.5000 1.0219 0.0000 ( 90798 PWs)   bands (ev):

  -103.8426-103.7564-103.5487-103.5158-103.2244-102.8476 -69.3756 -68.9495
   -68.8787 -68.8569 -64.3898 -64.3210 -64.2710 -64.1614 -64.1113 -64.1025
   -64.0949 -64.0257 -63.9533 -63.8960 -63.8341 -63.7878 -63.7253 -63.6813
   -63.5136 -63.3425 -63.2857 -63.1885 -35.9077 -35.7692 -35.7113 -35.4219
   -35.4075 -35.4022 -35.3655 -35.3358 -35.3200 -35.3177 -35.3119 -35.2949
   -12.8082 -12.6171 -12.3023 -12.1735 -12.0758 -11.8979 -11.8126 -11.6642
   -11.6208 -11.5078  -6.1278  -5.9310  -5.5962  -5.5492  -5.3656  -5.1319
    -5.0094  -4.8973  -4.6439  -4.6219  -4.4677  -4.3869  -4.3096  -4.2820
    -4.0822  -3.9389  -3.9028  -3.8245  -3.7691  -3.7017  -3.5505  -3.5072
    -3.3928  -3.2784  -3.1882  -3.1711  -3.0860  -2.9664  -2.8915  -2.7807
    -2.7231  -2.6758  -2.5950  -2.5458  -2.4904  -2.3841  -2.3124  -2.1968
    -2.1294  -2.0957  -2.0041  -1.9125  -1.8324  -1.8120  -1.7410  -1.7123
    -1.5651  -1.5088  -1.4525  -1.4314  -1.4057  -1.2452  -1.1833  -1.1349
    -1.0581  -0.9716  -0.7617  -0.6940  -0.5880  -0.3943   0.0942   0.2367
     0.4377   0.5186   0.6455   0.7475   0.7637   0.9232   0.9967   1.0723
     1.1039   1.2969   1.4658   1.6023   1.8493   2.0007   2.1036   2.2362
     2.3011   2.4527   3.0620   3.5728

          k =-0.5000 1.5328 0.0000 ( 90742 PWs)   bands (ev):

  -103.8425-103.7565-103.5484-103.5161-103.2244-102.8476 -69.3751 -68.9490
   -68.8782 -68.8564 -64.3899 -64.3217 -64.2690 -64.1674 -64.1113 -64.0974
   -64.0952 -64.0263 -63.9503 -63.9039 -63.8281 -63.7889 -63.7253 -63.6813
   -63.5136 -63.3426 -63.2857 -63.1885 -35.9058 -35.7910 -35.7082 -35.4250
   -35.4194 -35.4042 -35.3631 -35.3580 -35.3411 -35.3158 -35.3093 -35.2928
   -12.4174 -12.2326 -12.0186 -11.9529 -11.8379 -11.6618 -11.6175 -11.4931
   -11.4880 -11.2923  -6.0077  -5.8313  -5.6405  -5.5044  -5.3459  -5.2374
    -5.1752  -5.0053  -4.8372  -4.6587  -4.6100  -4.3987  -4.3647  -4.2635
    -4.2361  -4.1187  -4.0974  -4.0359  -3.9022  -3.8091  -3.7313  -3.6505
    -3.5243  -3.4461  -3.3340  -3.2375  -3.1776  -3.1264  -3.0670  -2.9332
    -2.8238  -2.7681  -2.7573  -2.6912  -2.6455  -2.4889  -2.3655  -2.3223
    -2.2709  -2.2092  -2.1640  -2.0738  -1.9474  -1.9094  -1.8556  -1.7509
    -1.6971  -1.6249  -1.5571  -1.4887  -1.4695  -1.4337  -1.2838  -1.1881
    -1.1521  -1.0596  -0.9484  -0.8400  -0.7553  -0.6171   0.2253   0.2416
     0.4571   0.5543   0.7485   0.8529   0.9499   1.0119   1.0523   1.1156
     1.2491   1.3640   1.4903   1.5606   1.8722   2.1018   2.2833   2.3644
     2.4726   2.5739   3.1391   3.3732

          k =-0.5000 2.0438 0.0000 ( 90604 PWs)   bands (ev):

  -103.8424-103.7566-103.5481-103.5164-103.2244-102.8476 -69.3747 -68.9486
   -68.8778 -68.8560 -64.3901 -64.3222 -64.2671 -64.1718 -64.1113 -64.0954
   -64.0936 -64.0266 -63.9469 -63.9104 -63.8234 -63.7899 -63.7253 -63.6813
   -63.5135 -63.3425 -63.2856 -63.1885 -35.9043 -35.8085 -35.7056 -35.4430
   -35.4179 -35.4016 -35.3765 -35.3606 -35.3590 -35.3133 -35.3070 -35.2912
   -12.0045 -11.8581 -11.7973 -11.7209 -11.6052 -11.4930 -11.4248 -11.3556
   -11.3458 -11.1203  -6.3417  -6.2867  -6.1018  -6.0896  -5.5311  -5.2913
    -5.2036  -5.0948  -4.9766  -4.8200  -4.6625  -4.4886  -4.3820  -4.1714
    -4.0841  -4.0426  -3.8926  -3.8582  -3.7899  -3.7726  -3.6961  -3.6501
    -3.5664  -3.5058  -3.4128  -3.3526  -3.2940  -3.1168  -3.1002  -3.0582
    -2.8325  -2.7407  -2.7240  -2.6956  -2.6666  -2.5184  -2.4494  -2.4420
    -2.3558  -2.2864  -2.2217  -2.1833  -2.0747  -2.0553  -1.9776  -1.9016
    -1.7822  -1.6641  -1.6153  -1.5429  -1.5017  -1.4943  -1.3209  -1.2811
    -1.2548  -1.1700  -1.0799  -1.0247  -0.8568  -0.8097   0.0519   0.1337
     0.4863   0.6269   0.8217   0.8506   0.9885   1.1437   1.2503   1.4423
     1.5202   1.6160   1.6846   1.7830   1.8591   2.0123   2.4379   2.5032
     2.6100   2.7186   2.9071   3.0794

          k =-0.5000-2.5547 0.0000 ( 90512 PWs)   bands (ev):

  -103.8423-103.7567-103.5480-103.5165-103.2244-102.8476 -69.3746 -68.9485
   -68.8776 -68.8558 -64.3901 -64.3225 -64.2662 -64.1732 -64.1114 -64.0956
   -64.0922 -64.0267 -63.9452 -63.9128 -63.8217 -63.7903 -63.7254 -63.6813
   -63.5132 -63.3425 -63.2853 -63.1886 -35.9037 -35.8152 -35.7046 -35.4499
   -35.4173 -35.4006 -35.3833 -35.3659 -35.3598 -35.3123 -35.3062 -35.2905
   -11.7924 -11.7641 -11.6711 -11.5348 -11.5140 -11.4825 -11.3639 -11.2932
   -11.2824 -11.0622  -6.5748  -6.5252  -6.3308  -6.3281  -5.7180  -5.3116
    -5.2951  -5.1304  -5.0663  -5.0583  -4.4474  -4.3709  -4.3060  -4.1032
    -4.0459  -3.9901  -3.8609  -3.8069  -3.7603  -3.7516  -3.6940  -3.5689
    -3.5093  -3.5037  -3.4443  -3.4016  -3.1865  -3.1384  -3.1283  -3.0043
    -2.8175  -2.7941  -2.6912  -2.6623  -2.6283  -2.6220  -2.5124  -2.3938
    -2.3762  -2.3100  -2.2463  -2.1899  -2.1465  -2.0788  -2.0663  -1.9960
    -1.8123  -1.7034  -1.5656  -1.5628  -1.4997  -1.4785  -1.4224  -1.3710
    -1.2668  -1.2210  -1.1407  -1.0993  -0.9564  -0.8454  -0.0512   0.1043
     0.5668   0.5841   0.8488   0.8503   0.9748   1.0181   1.2842   1.5399
     1.6516   1.7939   1.7939   1.9627   2.0782   2.1102   2.2644   2.3775
     2.4285   2.6052   2.9656   3.0481

     the Fermi energy is    -0.1733 ev

!    total energy              =   -9109.76982636 Ry
     total all-electron energy =     -9109.769826 Ry
     estimated scf accuracy    <          5.8E-09 Ry
     smearing contrib. (-TS)   =      -0.00019161 Ry
     internal energy E=F+TS    =   -9109.76963475 Ry

     The total energy is F=E-TS. E is the sum of the following terms:
     one-electron contribution =  -15776.41183608 Ry
     hartree contribution      =    7744.75782091 Ry
     xc contribution           =    -364.62773118 Ry
     ewald contribution        =    5554.17275228 Ry
     one-center paw contrib.   =   -6267.66064068 Ry

     convergence has been achieved in  17 iterations

     negative rho (up, down):  6.530E-02 0.000E+00

     Forces acting on atoms (cartesian axes, Ry/au):

     atom    1 type  1   force =     0.01630929    0.00000000    0.00462846
     atom    2 type  1   force =    -0.00295494    0.00000000   -0.00093749
     atom    3 type  1   force =    -0.01986591    0.00000000    0.00166457
     atom    4 type  1   force =    -0.00778050    0.00000000    0.00288409
     atom    5 type  2   force =     0.01181228    0.00000000    0.00174555
     atom    6 type  2   force =    -0.00235940    0.00000000   -0.00168615
     atom    7 type  2   force =    -0.00085884    0.00000000   -0.00016374
     atom    8 type  2   force =     0.01310951    0.00000000   -0.00261002
     atom    9 type  2   force =     0.00300860    0.00000000    0.00135046
     atom   10 type  2   force =    -0.00125015    0.00000000   -0.01365584
     atom   11 type  3   force =     0.01603327    0.00000000   -0.00200476
     atom   12 type  3   force =     0.00025772    0.00000000   -0.00007661
     atom   13 type  3   force =     0.00133256    0.00000000    0.00016104
     atom   14 type  3   force =    -0.00995032    0.00000000    0.00393409
     atom   15 type  3   force =     0.00201018    0.00000000    0.00088542
     atom   16 type  3   force =    -0.00249846    0.00000000   -0.00203176
     atom   17 type  3   force =    -0.00117655    0.00000000   -0.00017460
     atom   18 type  3   force =     0.02183161    0.00000000   -0.01790604
     atom   19 type  3   force =    -0.03829265    0.00000000    0.02367568
     atom   20 type  3   force =     0.00128272    0.00000000    0.00031765

     Total force =     0.067176     Total SCF correction =     0.000552


     Computing stress (Cartesian axis) and pressure


     negative rho (up, down):  6.530E-02 0.000E+00
          total   stress  (Ry/bohr**3)                   (kbar)     P=       -6.32
  -0.00005648   0.00000000   0.00000777           -8.31        0.00        1.14
   0.00000000  -0.00002348   0.00000000            0.00       -3.45        0.00
   0.00000777   0.00000000  -0.00004885            1.14        0.00       -7.19

     Energy error            =      5.5E-03 Ry
     Gradient error          =      3.8E-02 Ry/Bohr

     number of scf cycles    =   2
     number of bfgs steps    =   1

     energy             old  =   -9109.7643227162 Ry
     energy             new  =   -9109.7698263583 Ry

     CASE: energy            _new < energy            _old


     WARNING: bfgs curvature condition failed, Theta= 0.929
     new trust radius        =       0.0524116991 bohr
     new conv_thr            =       0.0000000038 Ry


ATOMIC_POSITIONS (angstrom)
Ta              15.4118401403        0.9149235643       12.4537273029
Ta               6.5680493202        2.7447696811       12.5908108877
Ta               2.2392657703        0.9149235643       12.4456870422
Ta              11.0733236006        2.7447696811       12.5962714478
Ni              12.8786345272        0.9149235643       11.7641436843
Ni               4.0426427932        2.7447696811       13.2718647053
Ni               4.7924391395        0.9149235643       11.7608357188
Ni              13.6296936860        2.7447696811       13.2711759164
Ni               8.8321224550        0.9149235643       12.3701321070
Ni               0.0070028694        2.7447696811       12.6486474885
Te              14.2317921630        2.7447696811       10.5317364859
Te               5.3932312742        0.9149235643       14.5006097207
Te              10.5959686738        0.9149235643       10.5188762731
Te               1.7630759617        2.7447696811       14.5223204301
Te               3.4471180318        2.7447696811       10.5352340408
Te              12.2602868505        0.9149235643       14.4994646415
Te               7.0600073407        0.9149235643       10.5188145943
Te              15.9060050939        2.7447696811       14.4923248658
Te              -0.0352129743        0.9149235643       10.8677306205
Te               8.8312756464        2.7447696811       14.1978430261



     Writing config-only to output data dir /ddn/data/physics/eamoujaes/2D-Ta2Ni3Te5/ELASTIC/OUT/ta2ni3te5.save/ :
     XML data file
     NEW-OLD atomic charge density approx. for the potential

     negative rho (up, down):  6.528E-02 0.000E+00

     total cpu time spent up to now is     1944.0 secs

     Self-consistent Calculation

     iteration #  1     ecut=    60.00 Ry     beta= 0.20
     Davidson diagonalization with overlap
     ethr =  1.00E-06,  avg # of iterations =  7.0

     negative rho (up, down):  6.527E-02 0.000E+00

     total cpu time spent up to now is     1983.7 secs

     total energy              =   -9109.77441707 Ry
     estimated scf accuracy    <       0.00124787 Ry

     iteration #  2     ecut=    60.00 Ry     beta= 0.20
     Davidson diagonalization with overlap
     c_bands:  1 eigenvalues not converged
     ethr =  5.67E-07,  avg # of iterations =  5.4

     negative rho (up, down):  6.527E-02 0.000E+00

     total cpu time spent up to now is     2021.8 secs

     total energy              =   -9109.77423151 Ry
     estimated scf accuracy    <       0.01513974 Ry

     iteration #  3     ecut=    60.00 Ry     beta= 0.20
     Davidson diagonalization with overlap
     ethr =  5.67E-07,  avg # of iterations =  3.1

     negative rho (up, down):  6.527E-02 0.000E+00

     total cpu time spent up to now is     2059.1 secs

     total energy              =   -9109.77479694 Ry
     estimated scf accuracy    <       0.00055155 Ry

     iteration #  4     ecut=    60.00 Ry     beta= 0.20
     Davidson diagonalization with overlap
     ethr =  2.51E-07,  avg # of iterations =  1.3

     negative rho (up, down):  6.527E-02 0.000E+00

     total cpu time spent up to now is     2096.0 secs

     total energy              =   -9109.77482324 Ry
     estimated scf accuracy    <       0.00016345 Ry

     iteration #  5     ecut=    60.00 Ry     beta= 0.20
     Davidson diagonalization with overlap
     ethr =  7.43E-08,  avg # of iterations =  1.8

     negative rho (up, down):  6.527E-02 0.000E+00

     total cpu time spent up to now is     2133.0 secs

     total energy              =   -9109.77482806 Ry
     estimated scf accuracy    <       0.00015664 Ry

     iteration #  6     ecut=    60.00 Ry     beta= 0.20
     Davidson diagonalization with overlap
     ethr =  7.12E-08,  avg # of iterations =  1.0

     negative rho (up, down):  6.526E-02 0.000E+00

     total cpu time spent up to now is     2170.3 secs

     total energy              =   -9109.77483376 Ry
     estimated scf accuracy    <       0.00004164 Ry

     iteration #  7     ecut=    60.00 Ry     beta= 0.20
     Davidson diagonalization with overlap
     ethr =  1.89E-08,  avg # of iterations =  1.9

     negative rho (up, down):  6.526E-02 0.000E+00

     total cpu time spent up to now is     2207.8 secs

     total energy              =   -9109.77483837 Ry
     estimated scf accuracy    <       0.00001786 Ry

     iteration #  8     ecut=    60.00 Ry     beta= 0.20
     Davidson diagonalization with overlap
     ethr =  8.12E-09,  avg # of iterations =  2.0

     negative rho (up, down):  6.526E-02 0.000E+00

     total cpu time spent up to now is     2245.1 secs

     total energy              =   -9109.77484092 Ry
     estimated scf accuracy    <       0.00000941 Ry

     iteration #  9     ecut=    60.00 Ry     beta= 0.20
     Davidson diagonalization with overlap
     ethr =  4.28E-09,  avg # of iterations =  2.0

     negative rho (up, down):  6.525E-02 0.000E+00

     total cpu time spent up to now is     2282.2 secs

     total energy              =   -9109.77484287 Ry
     estimated scf accuracy    <       0.00000272 Ry

     iteration # 10     ecut=    60.00 Ry     beta= 0.20
     Davidson diagonalization with overlap
     ethr =  1.24E-09,  avg # of iterations =  2.0

     negative rho (up, down):  6.525E-02 0.000E+00

     total cpu time spent up to now is     2319.7 secs

     total energy              =   -9109.77484353 Ry
     estimated scf accuracy    <       0.00000143 Ry

     iteration # 11     ecut=    60.00 Ry     beta= 0.20
     Davidson diagonalization with overlap
     ethr =  6.50E-10,  avg # of iterations =  1.8

     negative rho (up, down):  6.525E-02 0.000E+00

     total cpu time spent up to now is     2357.0 secs

     total energy              =   -9109.77484382 Ry
     estimated scf accuracy    <       0.00000039 Ry

     iteration # 12     ecut=    60.00 Ry     beta= 0.20
     Davidson diagonalization with overlap
     ethr =  1.76E-10,  avg # of iterations =  3.0

     negative rho (up, down):  6.525E-02 0.000E+00

     total cpu time spent up to now is     2394.6 secs

     total energy              =   -9109.77484392 Ry
     estimated scf accuracy    <       0.00000033 Ry

     iteration # 13     ecut=    60.00 Ry     beta= 0.20
     Davidson diagonalization with overlap
     ethr =  1.50E-10,  avg # of iterations =  1.3

     negative rho (up, down):  6.525E-02 0.000E+00

     total cpu time spent up to now is     2431.8 secs

     total energy              =   -9109.77484402 Ry
     estimated scf accuracy    <       0.00000015 Ry

     iteration # 14     ecut=    60.00 Ry     beta= 0.20
     Davidson diagonalization with overlap
     ethr =  6.81E-11,  avg # of iterations =  2.0

     negative rho (up, down):  6.525E-02 0.000E+00

     total cpu time spent up to now is     2469.4 secs

     total energy              =   -9109.77484405 Ry
     estimated scf accuracy    <       0.00000014 Ry

     iteration # 15     ecut=    60.00 Ry     beta= 0.20
     Davidson diagonalization with overlap
     ethr =  6.35E-11,  avg # of iterations =  1.4

     negative rho (up, down):  6.525E-02 0.000E+00

     total cpu time spent up to now is     2506.7 secs

     total energy              =   -9109.77484405 Ry
     estimated scf accuracy    <       0.00000017 Ry

     iteration # 16     ecut=    60.00 Ry     beta= 0.20
     Davidson diagonalization with overlap
     ethr =  6.35E-11,  avg # of iterations =  1.0

     negative rho (up, down):  6.525E-02 0.000E+00

     total cpu time spent up to now is     2544.0 secs

     total energy              =   -9109.77484406 Ry
     estimated scf accuracy    <       0.00000002 Ry

     iteration # 17     ecut=    60.00 Ry     beta= 0.20
     Davidson diagonalization with overlap
     ethr =  9.09E-12,  avg # of iterations =  4.7

     negative rho (up, down):  6.525E-02 0.000E+00

     total cpu time spent up to now is     2581.9 secs

     total energy              =   -9109.77484406 Ry
     estimated scf accuracy    <          6.3E-09 Ry

     iteration # 18     ecut=    60.00 Ry     beta= 0.20
     Davidson diagonalization with overlap
     ethr =  2.86E-12,  avg # of iterations =  4.0

     negative rho (up, down):  6.525E-02 0.000E+00

     total cpu time spent up to now is     2619.9 secs

     total energy              =   -9109.77484406 Ry
     estimated scf accuracy    <          8.1E-09 Ry

     iteration # 19     ecut=    60.00 Ry     beta= 0.20
     Davidson diagonalization with overlap
     ethr =  2.86E-12,  avg # of iterations =  1.0

     negative rho (up, down):  6.525E-02 0.000E+00

     total cpu time spent up to now is     2657.1 secs

     End of self-consistent calculation

          k = 0.0000 0.0000 0.0000 ( 90895 PWs)   bands (ev):

  -103.8269-103.7373-103.5452-103.5096-103.2277-102.8752 -69.3662 -68.9525
   -68.8804 -68.8708 -64.3736 -64.3004 -64.2589 -64.1336 -64.1050 -64.0921
   -64.0881 -64.0076 -63.9538 -63.8810 -63.8380 -63.7817 -63.7286 -63.6839
   -63.5173 -63.3707 -63.3170 -63.2113 -35.8996 -35.7386 -35.7058 -35.4242
   -35.4143 -35.3781 -35.3699 -35.3346 -35.3163 -35.3113 -35.3099 -35.3014
   -13.1642 -12.9448 -12.6303 -12.4062 -12.2822 -12.0708 -12.0182 -11.9131
   -11.7492 -11.7371  -6.4171  -6.2053  -5.9347  -5.8253  -5.6907  -5.5330
    -5.3242  -4.8948  -4.7750  -4.4324  -4.2706  -4.1659  -4.0413  -4.0200
    -3.9702  -3.8624  -3.8366  -3.6115  -3.6038  -3.4616  -3.4149  -3.2582
    -3.0532  -2.9389  -2.8366  -2.8121  -2.8091  -2.7072  -2.5816  -2.4736
    -2.4694  -2.4401  -2.3403  -2.2416  -2.2393  -2.1302  -2.0387  -1.9766
    -1.9000  -1.8833  -1.8314  -1.6931  -1.5735  -1.5457  -1.5220  -1.4552
    -1.4387  -1.3804  -1.2906  -1.2735  -1.2641  -1.1578  -1.0296  -0.9574
    -0.8580  -0.8524  -0.7632  -0.6230  -0.3936  -0.3039  -0.1515   0.1779
     0.2694   0.4217   0.7917   0.8890   0.9347   1.0130   1.1031   1.1454
     1.2240   1.5301   1.5618   1.9926   2.0888   2.1250   2.5317   2.8408
     2.9674   3.0897   3.1066   3.1738

          k = 0.0000 0.5109 0.0000 ( 90895 PWs)   bands (ev):

  -103.8269-103.7373-103.5451-103.5096-103.2277-102.8752 -69.3661 -68.9524
   -68.8803 -68.8706 -64.3737 -64.3007 -64.2584 -64.1361 -64.1050 -64.0898
   -64.0883 -64.0077 -63.9532 -63.8839 -63.8355 -63.7819 -63.7286 -63.6839
   -63.5173 -63.3707 -63.3171 -63.2113 -35.8990 -35.7454 -35.7049 -35.4236
   -35.4133 -35.3851 -35.3690 -35.3336 -35.3184 -35.3155 -35.3094 -35.3083
   -13.0711 -12.8529 -12.5490 -12.3412 -12.2264 -12.0132 -11.9636 -11.8657
   -11.6999 -11.6911  -6.3334  -6.1217  -5.8375  -5.7299  -5.6080  -5.4290
    -5.2363  -4.8276  -4.7096  -4.4197  -4.2829  -4.2026  -4.1563  -4.1040
    -4.0242  -3.9745  -3.8567  -3.5997  -3.5658  -3.4767  -3.4422  -3.2196
    -3.1799  -3.1090  -2.9540  -2.9133  -2.8792  -2.8558  -2.7686  -2.5844
    -2.5030  -2.4254  -2.4245  -2.3446  -2.2154  -2.1407  -2.0757  -2.0681
    -2.0515  -1.9300  -1.8780  -1.8148  -1.7251  -1.7081  -1.6456  -1.5461
    -1.5189  -1.4522  -1.3555  -1.2876  -1.2662  -1.1578  -1.1330  -0.9607
    -0.8910  -0.8743  -0.7685  -0.7351  -0.4109  -0.2213  -0.1313   0.1766
     0.3017   0.3721   0.6351   0.8256   0.8908   0.9106   1.0784   1.1775
     1.2069   1.4536   1.6522   1.7088   1.8582   2.1638   2.3673   2.5190
     2.6190   2.7144   2.7980   3.1192

          k = 0.0000 1.0219 0.0000 ( 90819 PWs)   bands (ev):

  -103.8268-103.7374-103.5448-103.5099-103.2277-102.8752 -69.3657 -68.9520
   -68.8799 -68.8702 -64.3738 -64.3013 -64.2568 -64.1417 -64.1050 -64.0884
   -64.0846 -64.0081 -63.9514 -63.8906 -63.8297 -63.7827 -63.7286 -63.6839
   -63.5174 -63.3707 -63.3171 -63.2113 -35.8975 -35.7631 -35.7023 -35.4219
   -35.4107 -35.4033 -35.3669 -35.3366 -35.3314 -35.3263 -35.3131 -35.3077
   -12.8051 -12.5918 -12.3220 -12.1741 -12.0650 -11.8506 -11.8168 -11.7319
   -11.6001 -11.5310  -6.1241  -5.9108  -5.5939  -5.5239  -5.3787  -5.1740
    -5.0271  -4.8471  -4.6155  -4.5442  -4.4418  -4.3698  -4.3316  -4.2400
    -4.1856  -4.0621  -3.9346  -3.7971  -3.7075  -3.6562  -3.5767  -3.5021
    -3.4219  -3.2641  -3.1849  -3.1046  -3.0478  -2.9839  -2.9183  -2.8026
    -2.6789  -2.6654  -2.6082  -2.5621  -2.5023  -2.3549  -2.3001  -2.2112
    -2.1511  -2.1021  -2.0127  -1.9124  -1.8436  -1.7824  -1.7470  -1.6811
    -1.6164  -1.5558  -1.4816  -1.4386  -1.2870  -1.2313  -1.1707  -1.1315
    -1.0572  -0.9842  -0.8204  -0.7262  -0.5924  -0.4098   0.0574   0.3003
     0.3814   0.5425   0.6171   0.7238   0.7695   0.8929   0.9837   1.0891
     1.2524   1.3717   1.4116   1.6337   1.8385   1.9477   2.1151   2.2271
     2.3364   2.4807   3.0473   3.5149

          k = 0.0000 1.5328 0.0000 ( 90745 PWs)   bands (ev):

  -103.8267-103.7375-103.5445-103.5101-103.2277-102.8751 -69.3652 -68.9515
   -68.8794 -68.8697 -64.3739 -64.3021 -64.2548 -64.1478 -64.1050 -64.0887
   -64.0792 -64.0086 -63.9486 -63.8984 -63.8235 -63.7837 -63.7286 -63.6839
   -63.5174 -63.3707 -63.3171 -63.2113 -35.8956 -35.7850 -35.6991 -35.4261
   -35.4195 -35.4074 -35.3645 -35.3589 -35.3490 -35.3279 -35.3102 -35.3057
   -12.4120 -12.2121 -12.0147 -11.9625 -11.8335 -11.6589 -11.5881 -11.5456
   -11.4723 -11.3198  -6.0020  -5.8067  -5.6490  -5.5228  -5.3249  -5.2199
    -5.1020  -5.0337  -4.8354  -4.6410  -4.6054  -4.3914  -4.3708  -4.3096
    -4.2871  -4.1909  -4.0760  -3.9353  -3.8872  -3.7667  -3.7207  -3.6811
    -3.6513  -3.4227  -3.2662  -3.2598  -3.1914  -3.0847  -2.9979  -2.9287
    -2.8901  -2.8195  -2.7158  -2.6649  -2.6480  -2.4781  -2.3754  -2.3279
    -2.2577  -2.2294  -2.1371  -2.0428  -1.9738  -1.9001  -1.8693  -1.7617
    -1.6974  -1.6289  -1.5784  -1.4866  -1.4666  -1.3789  -1.3105  -1.1798
    -1.1731  -1.0832  -0.9428  -0.8263  -0.7706  -0.6341   0.2189   0.2725
     0.3705   0.4925   0.7778   0.8065   0.9829   1.0392   1.0616   1.1802
     1.2742   1.3337   1.4976   1.6398   1.7813   2.1450   2.2000   2.3688
     2.5803   2.6277   3.0753   3.3110

          k = 0.0000 2.0438 0.0000 ( 90557 PWs)   bands (ev):

  -103.8266-103.7376-103.5443-103.5104-103.2277-102.8751 -69.3648 -68.9510
   -68.8789 -68.8693 -64.3739 -64.3027 -64.2529 -64.1521 -64.1049 -64.0889
   -64.0753 -64.0089 -63.9456 -63.9044 -63.8188 -63.7847 -63.7285 -63.6838
   -63.5173 -63.3706 -63.3170 -63.2112 -35.8940 -35.8026 -35.6966 -35.4441
   -35.4180 -35.4047 -35.3773 -35.3669 -35.3620 -35.3254 -35.3078 -35.3042
   -11.9944 -11.8473 -11.7889 -11.7151 -11.6018 -11.5061 -11.4151 -11.3629
   -11.3502 -11.1503  -6.3135  -6.2651  -6.1161  -6.1055  -5.5190  -5.2776
    -5.1888  -5.0976  -4.9797  -4.8577  -4.6320  -4.4912  -4.3899  -4.1644
    -4.0690  -4.0040  -3.8922  -3.8463  -3.7965  -3.7626  -3.7182  -3.6170
    -3.5869  -3.5321  -3.4156  -3.3762  -3.3296  -3.1101  -3.0876  -3.0126
    -2.8675  -2.7818  -2.7388  -2.7105  -2.5826  -2.4892  -2.4601  -2.4222
    -2.3497  -2.2714  -2.1977  -2.1691  -2.1088  -2.0363  -2.0137  -1.8947
    -1.7734  -1.6695  -1.6094  -1.5505  -1.4916  -1.4821  -1.3695  -1.3213
    -1.2035  -1.1494  -1.1049  -1.0299  -0.8743  -0.8204   0.0422   0.1412
[...]
     1.2315   1.3038   1.3923   1.6692   1.9256   1.9471   1.9884   2.1947
     2.2910   2.4501   3.5653   3.6326

          k = 0.0000 1.5328 0.0000 ( 90745 PWs)   bands (ev):

  -103.4954-103.4941-103.4859-103.4809-103.1598-103.1598 -69.0852 -69.0838
   -69.0837 -69.0825 -64.0655 -64.0645 -64.0581 -64.0526 -63.9197 -63.9175
   -63.8863 -63.8831 -63.7613 -63.7584 -63.7374 -63.7330 -63.6541 -63.6527
   -63.6345 -63.6340 -63.4444 -63.4432 -35.5422 -35.5409 -35.5405 -35.5392
   -35.5364 -35.5354 -35.5342 -35.5335 -35.5048 -35.5038 -35.5032 -35.5025
   -12.3256 -12.1656 -12.0513 -11.8636 -11.8310 -11.7499 -11.6223 -11.5998
   -11.5533 -11.5010  -5.8767  -5.7559  -5.5625  -5.5319  -5.2701  -5.1767
    -5.0219  -5.0145  -4.8778  -4.6894  -4.4881  -4.4629  -4.3828  -4.3493
    -4.2151  -4.1574  -4.0052  -4.0016  -3.8499  -3.7672  -3.7467  -3.6906
    -3.5962  -3.2980  -3.2840  -3.2621  -3.1513  -3.1112  -3.0752  -3.0233
    -2.7993  -2.7764  -2.7432  -2.6309  -2.5992  -2.4902  -2.3578  -2.2489
    -2.2011  -2.1923  -2.0965  -2.0051  -1.9492  -1.7417  -1.7248  -1.6844
    -1.6170  -1.5871  -1.5534  -1.5251  -1.4679  -1.3564  -1.3031  -1.2623
    -1.0595  -1.0447  -1.0006  -0.8349  -0.8290  -0.6965   0.2486   0.3306
     0.4618   0.6009   0.7907   0.8290   1.0235   1.0388   1.0845   1.0883
     1.3048   1.3669   1.4094   1.7164   1.7998   2.0603   2.0995   2.3797
     2.5533   2.6183   3.4226   3.4705

          k = 0.0000 2.0438 0.0000 ( 90557 PWs)   bands (ev):

  -103.4945-103.4935-103.4867-103.4815-103.1598-103.1597 -69.0848 -69.0834
   -69.0833 -69.0821 -64.0653 -64.0644 -64.0583 -64.0527 -63.9132 -63.9113
   -63.8949 -63.8914 -63.7546 -63.7522 -63.7413 -63.7364 -63.6540 -63.6526
   -63.6344 -63.6339 -63.4442 -63.4431 -35.5597 -35.5585 -35.5580 -35.5567
   -35.5348 -35.5339 -35.5326 -35.5320 -35.5023 -35.5013 -35.5007 -35.5003
   -11.8871 -11.7843 -11.7300 -11.6671 -11.6388 -11.6302 -11.4556 -11.4327
   -11.3794 -11.3723  -6.1769  -6.1577  -6.1303  -6.1214  -5.4588  -5.4082
    -5.1566  -5.1189  -4.9074  -4.8907  -4.4921  -4.4693  -4.2822  -4.0429
    -4.0073  -3.9858  -3.9689  -3.8720  -3.8626  -3.7703  -3.6949  -3.6391
    -3.5188  -3.4655  -3.3992  -3.3815  -3.3344  -3.2071  -3.2000  -3.1489
    -2.8243  -2.7870  -2.7634  -2.6405  -2.5444  -2.4838  -2.3185  -2.3151
    -2.3125  -2.2911  -2.2318  -2.1216  -1.9702  -1.9567  -1.8453  -1.8145
    -1.6736  -1.6156  -1.5892  -1.5565  -1.5325  -1.4628  -1.3926  -1.3075
    -1.1579  -1.1539  -1.0780  -0.9944  -0.9113  -0.8917   0.1451   0.2758
     0.4301   0.7127   0.8743   0.8773   0.9679   1.1806   1.2962   1.4939
     1.5162   1.5733   1.6291   1.7388   1.7797   1.9720   2.3159   2.5661
     2.7879   2.9109   3.0794   3.0844

          k = 0.0000-2.5547 0.0000 ( 90506 PWs)   bands (ev):

  -103.4941-103.4932-103.4871-103.4817-103.1598-103.1597 -69.0847 -69.0833
   -69.0831 -69.0819 -64.0653 -64.0644 -64.0585 -64.0529 -63.9078 -63.9069
   -63.9009 -63.8963 -63.7505 -63.7491 -63.7445 -63.7387 -63.6540 -63.6526
   -63.6345 -63.6340 -63.4441 -63.4429 -35.5665 -35.5653 -35.5647 -35.5635
   -35.5341 -35.5332 -35.5320 -35.5313 -35.5013 -35.5004 -35.4997 -35.4995
   -11.6147 -11.6146 -11.5875 -11.5858 -11.5629 -11.5619 -11.4378 -11.4370
   -11.3055 -11.3034  -6.4030  -6.4024  -6.3720  -6.3688  -5.6319  -5.6316
    -5.1289  -5.1278  -5.0447  -5.0423  -4.2140  -4.2134  -4.2082  -4.2078
    -3.9783  -3.9771  -3.7977  -3.7975  -3.6638  -3.6630  -3.6254  -3.6253
    -3.5487  -3.5474  -3.4190  -3.4182  -3.2982  -3.2974  -3.2804  -3.2793
    -2.7568  -2.7563  -2.7090  -2.7087  -2.4137  -2.4134  -2.3937  -2.3930
    -2.3148  -2.3135  -2.2074  -2.2038  -2.0372  -2.0370  -1.9335  -1.9316
    -1.6170  -1.6163  -1.5927  -1.5907  -1.4495  -1.4491  -1.4272  -1.4270
    -1.2826  -1.2824  -1.1209  -1.1204  -0.9079  -0.9076   0.1724   0.1729
     0.5574   0.5583   0.9432   0.9437   1.0108   1.0120   1.3418   1.3432
     1.7895   1.7909   1.8270   1.8276   1.9431   1.9434   2.2787   2.2797
     2.6980   2.6984   3.1094   3.1100

          k =-0.5000 0.0000 0.0000 ( 90892 PWs)   bands (ev):

  -103.4973-103.4955-103.4841-103.4795-103.1599-103.1598 -69.0863 -69.0849
   -69.0847 -69.0835 -64.0657 -64.0645 -64.0572 -64.0518 -63.9282 -63.9257
   -63.8704 -63.8675 -63.7744 -63.7712 -63.7322 -63.7281 -63.6540 -63.6526
   -63.6346 -63.6341 -63.4443 -63.4431 -35.5416 -35.5407 -35.5393 -35.5387
   -35.5114 -35.5104 -35.5090 -35.5084 -35.4949 -35.4936 -35.4931 -35.4919
   -13.0196 -13.0154 -12.5150 -12.5143 -12.1942 -12.1913 -11.9997 -11.9995
   -11.8504 -11.8493  -6.1951  -6.1923  -5.9364  -5.9346  -5.5445  -5.5433
    -5.2213  -5.2209  -4.6641  -4.6622  -4.0098  -4.0074  -3.8411  -3.8356
    -3.7836  -3.7752  -3.7196  -3.7191  -3.6348  -3.6342  -3.3688  -3.3627
    -2.8741  -2.8714  -2.8711  -2.8688  -2.5960  -2.5932  -2.4127  -2.4086
    -2.3855  -2.3808  -2.2467  -2.2451  -2.1743  -2.1705  -2.1229  -2.1210
    -1.9131  -1.9101  -1.8217  -1.8201  -1.4532  -1.4477  -1.4140  -1.4109
    -1.3341  -1.3324  -1.3188  -1.3156  -1.1863  -1.1852  -1.0244  -1.0209
    -0.9141  -0.9133  -0.7045  -0.7023  -0.2520  -0.2502  -0.2255  -0.2239
     0.5632   0.5644   0.6386   0.6409   0.8469   0.8484   1.1493   1.1537
     1.3162   1.3179   1.9327   1.9348   1.9711   1.9732   2.9781   2.9792
     3.0605   3.0637   3.2370   3.2393

          k =-0.5000 0.5109 0.0000 ( 90858 PWs)   bands (ev):

  -103.4970-103.4953-103.4843-103.4797-103.1599-103.1598 -69.0861 -69.0847
   -69.0846 -69.0834 -64.0657 -64.0645 -64.0573 -64.0520 -63.9272 -63.9248
   -63.8726 -63.8696 -63.7725 -63.7694 -63.7327 -63.7286 -63.6540 -63.6526
   -63.6345 -63.6340 -63.4443 -63.4431 -35.5409 -35.5400 -35.5386 -35.5380
   -35.5104 -35.5095 -35.5082 -35.5075 -35.5017 -35.5005 -35.5000 -35.4987
   -12.9272 -12.9230 -12.4346 -12.4338 -12.1464 -12.1435 -11.9411 -11.9409
   -11.8095 -11.8084  -6.1140  -6.1112  -5.8345  -5.8327  -5.4520  -5.4511
    -5.1427  -5.1424  -4.6182  -4.6162  -4.0887  -4.0850  -3.9411  -3.9381
    -3.7975  -3.7960  -3.7706  -3.7675  -3.6523  -3.6502  -3.3465  -3.3426
    -3.0227  -3.0212  -2.9785  -2.9782  -2.7744  -2.7697  -2.5615  -2.5600
    -2.4040  -2.4023  -2.3080  -2.3063  -2.1848  -2.1831  -2.1567  -2.1524
    -1.9928  -1.9914  -1.8751  -1.8737  -1.6690  -1.6665  -1.5360  -1.5334
    -1.4033  -1.4022  -1.3012  -1.2982  -1.1373  -1.1340  -1.0902  -1.0891
    -0.9497  -0.9474  -0.8085  -0.8076  -0.3217  -0.3199  -0.0541  -0.0522
     0.4353   0.4362   0.7195   0.7222   0.8373   0.8380   1.0474   1.0522
     1.3178   1.3191   1.7179   1.7191   1.9341   1.9358   2.5173   2.5187
     2.6398   2.6419   3.2745   3.2751

          k =-0.5000 1.0219 0.0000 ( 90798 PWs)   bands (ev):

  -103.4964-103.4948-103.4849-103.4802-103.1598-103.1598 -69.0857 -69.0843
   -69.0842 -69.0830 -64.0656 -64.0645 -64.0576 -64.0522 -63.9245 -63.9221
   -63.8783 -63.8753 -63.7677 -63.7646 -63.7344 -63.7302 -63.6540 -63.6526
   -63.6345 -63.6339 -63.4444 -63.4432 -35.5391 -35.5382 -35.5368 -35.5362
   -35.5197 -35.5185 -35.5179 -35.5167 -35.5079 -35.5070 -35.5059 -35.5053
   -12.6633 -12.6592 -12.2107 -12.2098 -12.0153 -12.0126 -11.7825 -11.7821
   -11.6965 -11.6953  -5.9137  -5.9109  -5.5723  -5.5706  -5.2186  -5.2179
    -5.0178  -5.0171  -4.5775  -4.5744  -4.2976  -4.2957  -4.2361  -4.2345
    -3.9582  -3.9560  -3.8208  -3.8189  -3.7813  -3.7796  -3.5502  -3.5478
    -3.3063  -3.3045  -3.2116  -3.2096  -3.0083  -3.0040  -2.7826  -2.7792
    -2.5852  -2.5834  -2.5735  -2.5724  -2.4283  -2.4265  -2.2274  -2.2261
    -2.1155  -2.1119  -1.9644  -1.9622  -1.7036  -1.7010  -1.6751  -1.6720
    -1.4629  -1.4604  -1.4511  -1.4500  -1.2399  -1.2378  -1.2074  -1.2056
    -1.0908  -1.0904  -0.7553  -0.7544  -0.5536  -0.5525   0.2201   0.2207
     0.5308   0.5320   0.6881   0.6892   0.8670   0.8676   0.9764   0.9813
     1.2075   1.2109   1.5736   1.5755   1.8682   1.8716   2.1908   2.1921
     2.3346   2.3360   3.6410   3.6416

          k =-0.5000 1.5328 0.0000 ( 90742 PWs)   bands (ev):

  -103.4954-103.4941-103.4859-103.4809-103.1598-103.1598 -69.0852 -69.0838
   -69.0837 -69.0825 -64.0655 -64.0644 -64.0580 -64.0525 -63.9197 -63.9175
   -63.8863 -63.8831 -63.7613 -63.7584 -63.7374 -63.7330 -63.6540 -63.6526
   -63.6346 -63.6340 -63.4444 -63.4432 -35.5422 -35.5409 -35.5405 -35.5392
   -35.5363 -35.5354 -35.5342 -35.5335 -35.5048 -35.5039 -35.5030 -35.5025
   -12.2735 -12.2696 -11.9031 -11.9021 -11.8388 -11.8364 -11.5891 -11.5885
   -11.5318 -11.5303  -5.8288  -5.8262  -5.4815  -5.4770  -5.3171  -5.3160
    -5.0537  -5.0522  -4.7186  -4.7157  -4.5025  -4.5024  -4.2254  -4.2227
    -4.1809  -4.1798  -4.1216  -4.1197  -3.8743  -3.8727  -3.6759  -3.6729
    -3.3748  -3.3730  -3.3171  -3.3165  -3.1464  -3.1442  -3.0772  -3.0755
    -2.7666  -2.7658  -2.7042  -2.7015  -2.5178  -2.5154  -2.3112  -2.3086
    -2.1747  -2.1705  -2.1172  -2.1154  -1.8076  -1.8050  -1.6964  -1.6935
    -1.6031  -1.6000  -1.5305  -1.5288  -1.4523  -1.4505  -1.2351  -1.2336
    -1.1029  -1.1012  -0.9176  -0.9157  -0.7486  -0.7474   0.3248   0.3269
     0.6117   0.6149   0.7994   0.8015   0.9162   0.9178   1.0616   1.0623
     1.3618   1.3625   1.5347   1.5365   1.9196   1.9250   2.3094   2.3103
     2.5175   2.5202   3.5201   3.5206

          k =-0.5000 2.0438 0.0000 ( 90604 PWs)   bands (ev):

  -103.4945-103.4935-103.4867-103.4815-103.1598-103.1597 -69.0848 -69.0834
   -69.0833 -69.0821 -64.0653 -64.0644 -64.0584 -64.0528 -63.9133 -63.9114
   -63.8950 -63.8915 -63.7546 -63.7523 -63.7413 -63.7364 -63.6540 -63.6526
   -63.6345 -63.6339 -63.4443 -63.4431 -35.5597 -35.5585 -35.5580 -35.5567
   -35.5348 -35.5339 -35.5326 -35.5320 -35.5023 -35.5013 -35.5006 -35.5003
   -11.8529 -11.8494 -11.6801 -11.6790 -11.6358 -11.6338 -11.4518 -11.4515
   -11.3726 -11.3707  -6.2249  -6.2232  -6.0486  -6.0462  -5.4753  -5.4742
    -5.1357  -5.1306  -4.8842  -4.8820  -4.4932  -4.4907  -4.1538  -4.1533
    -4.0224  -4.0216  -3.9511  -3.9483  -3.7836  -3.7813  -3.6649  -3.6638
    -3.4657  -3.4642  -3.3528  -3.3515  -3.2875  -3.2865  -3.1899  -3.1895
    -2.8097  -2.8080  -2.7120  -2.7094  -2.5241  -2.5207  -2.3310  -2.3295
    -2.2901  -2.2878  -2.2082  -2.2077  -1.9118  -1.9077  -1.8469  -1.8429
    -1.6597  -1.6578  -1.5452  -1.5429  -1.5344  -1.5314  -1.2725  -1.2722
    -1.2460  -1.2452  -0.9868  -0.9857  -0.9355  -0.9349   0.2121   0.2133
     0.6196   0.6221   0.8709   0.8709   1.0398   1.0411   1.3507   1.3521
     1.5667   1.5670   1.7247   1.7255   1.8203   1.8225   2.5623   2.5663
     2.6494   2.6504   3.1328   3.1339

          k =-0.5000-2.5547 0.0000 ( 90512 PWs)   bands (ev):

  -103.4941-103.4932-103.4871-103.4817-103.1598-103.1597 -69.0847 -69.0833
   -69.0831 -69.0819 -64.0653 -64.0644 -64.0585 -64.0529 -63.9078 -63.9069
   -63.9009 -63.8964 -63.7505 -63.7491 -63.7445 -63.7387 -63.6541 -63.6527
   -63.6345 -63.6339 -63.4441 -63.4429 -35.5665 -35.5653 -35.5647 -35.5635
   -35.5341 -35.5332 -35.5320 -35.5313 -35.5013 -35.5004 -35.4997 -35.4995
   -11.6137 -11.6137 -11.5914 -11.5895 -11.5586 -11.5577 -11.4400 -11.4392
   -11.3045 -11.3025  -6.4663  -6.4649  -6.2936  -6.2911  -5.6483  -5.6481
    -5.1386  -5.1375  -5.0375  -5.0351  -4.2508  -4.2500  -4.1681  -4.1681
    -3.9616  -3.9602  -3.7861  -3.7858  -3.7200  -3.7198  -3.6301  -3.6281
    -3.6005  -3.5988  -3.4048  -3.4045  -3.2309  -3.2306  -3.2031  -3.2016
    -2.8294  -2.8288  -2.6962  -2.6953  -2.4516  -2.4513  -2.3741  -2.3741
    -2.3397  -2.3387  -2.2038  -2.2002  -2.0324  -2.0317  -1.9081  -1.9051
    -1.6294  -1.6279  -1.5887  -1.5864  -1.4513  -1.4507  -1.4151  -1.4143
    -1.2992  -1.2982  -1.1196  -1.1192  -0.9101  -0.9095   0.1781   0.1786
     0.6270   0.6280   0.8693   0.8699   0.9517   0.9523   1.5136   1.5152
     1.6039   1.6044   1.9028   1.9036   1.9246   1.9251   2.4442   2.4446
     2.4913   2.4931   3.2910   3.3266

     the Fermi energy is    -0.2393 ev

!    total energy              =   -9109.86056281 Ry
     total all-electron energy =     -9109.860563 Ry
     estimated scf accuracy    <          8.7E-11 Ry
     smearing contrib. (-TS)   =      -0.00021505 Ry
     internal energy E=F+TS    =   -9109.86034776 Ry

     The total energy is F=E-TS. E is the sum of the following terms:
     one-electron contribution =  -15728.31022671 Ry
     hartree contribution      =    7720.78515421 Ry
     xc contribution           =    -364.55493136 Ry
     ewald contribution        =    5529.84365558 Ry
     one-center paw contrib.   =   -6267.62399947 Ry

     convergence has been achieved in  19 iterations

     negative rho (up, down):  6.564E-02 0.000E+00

     Forces acting on atoms (cartesian axes, Ry/au):

     atom    1 type  1   force =    -0.00040946    0.00000000   -0.00059774
     atom    2 type  1   force =     0.00024153    0.00000000   -0.00011224
     atom    3 type  1   force =     0.00025059    0.00000000    0.00035982
     atom    4 type  1   force =    -0.00017949    0.00000000   -0.00039927
     atom    5 type  2   force =     0.00013552    0.00000000    0.00020800
     atom    6 type  2   force =    -0.00015318    0.00000000    0.00021938
     atom    7 type  2   force =     0.00001371    0.00000000   -0.00000115
     atom    8 type  2   force =     0.00030500    0.00000000   -0.00006110
     atom    9 type  2   force =     0.00020895    0.00000000   -0.00017446
     atom   10 type  2   force =    -0.00011793    0.00000000   -0.00050765
     atom   11 type  3   force =    -0.00047172    0.00000000    0.00066029
     atom   12 type  3   force =    -0.00012604    0.00000000    0.00015989
     atom   13 type  3   force =     0.00035627    0.00000000   -0.00013362
     atom   14 type  3   force =     0.00009872    0.00000000   -0.00023003
     atom   15 type  3   force =    -0.00026262    0.00000000   -0.00068744
     atom   16 type  3   force =     0.00002029    0.00000000    0.00030000
     atom   17 type  3   force =     0.00025966    0.00000000   -0.00000048
     atom   18 type  3   force =    -0.00000421    0.00000000    0.00085144
     atom   19 type  3   force =    -0.00040623    0.00000000    0.00016938
     atom   20 type  3   force =     0.00024063    0.00000000   -0.00002301

     Total force =     0.002035     Total SCF correction =     0.000048


     Computing stress (Cartesian axis) and pressure


     negative rho (up, down):  6.564E-02 0.000E+00
          total   stress  (Ry/bohr**3)                   (kbar)     P=       -9.83
  -0.00013618   0.00000000   0.00000020          -20.03        0.00        0.03
   0.00000000  -0.00002793   0.00000000            0.00       -4.11        0.00
   0.00000020   0.00000000  -0.00003636            0.03        0.00       -5.35

     Energy error            =      8.2E-06 Ry
     Gradient error          =      8.5E-04 Ry/Bohr

     bfgs converged in  33 scf cycles and  32 bfgs steps
     (criteria: energy <  1.0E-04 Ry, force <  1.0E-03 Ry/Bohr)

     End of BFGS Geometry Optimization

     Final energy             =   -9109.8605628099 Ry

     File /ddn/data/physics/eamoujaes/2D-Ta2Ni3Te5/ELASTIC/OUT/ta2ni3te5.bfgs deleted, as requested
Begin final coordinates

ATOMIC_POSITIONS (angstrom)
Ta              15.8072669674        0.9149235643       12.3976514132
Ta               6.4551661054        2.7447696811       12.6357393090
Ta               1.9558970401        0.9149235643       12.4149797640
Ta              11.3055326555        2.7447696811       12.6242364705
Ni              13.1425206656        0.9149235643       11.7668497061
Ni               3.7936440824        2.7447696811       13.2660184444
Ni               4.6185315408        0.9149235643       11.7899933410
Ni              13.9677827451        2.7447696811       13.2435739226
Ni               8.8765693484        0.9149235643       12.3060087353
Ni              -0.4630693808        2.7447696811       12.7337192918
Te              14.5609690026        2.7447696811       10.5450520084
Te               5.2082863033        0.9149235643       14.4869177241
Te              10.7866167386        0.9149235643       10.5675661509
Te               1.4432333323        2.7447696811       14.4741856793
Te               3.2095727476        2.7447696811       10.5688843304
Te              12.5601868207        0.9149235643       14.4686280158
Te               6.9623166462        0.9149235643       10.5749886927
Te              16.3154765351        2.7447696811       14.4559274857
Te              -0.4612522868        0.9149235643       10.9526757769
Te               8.8833147539        2.7447696811       14.0846547377
End final coordinates



     Writing all to output data dir /ddn/data/physics/eamoujaes/2D-Ta2Ni3Te5/ELASTIC/OUT/ta2ni3te5.save/ :
     XML data file, charge density, pseudopotentials, collected wavefunctions
 
     init_run     :     52.42s CPU     63.96s WALL (       1 calls)
     electrons    :  22735.27s CPU  29541.49s WALL (      33 calls)
     update_pot   :    905.22s CPU   1164.45s WALL (      32 calls)
     forces       :     61.71s CPU     77.31s WALL (      33 calls)
     stress       :    108.71s CPU    168.42s WALL (      33 calls)

     Called by init_run:
     wfcinit      :      5.95s CPU      7.64s WALL (       1 calls)
     potinit      :     41.86s CPU     50.41s WALL (       1 calls)
     hinit0       :      2.59s CPU      3.04s WALL (       1 calls)

     Called by electrons:
     c_bands      :   1534.07s CPU   2234.93s WALL (     745 calls)
     sum_band     :    690.85s CPU    867.30s WALL (     745 calls)
     v_of_rho     :    266.15s CPU    355.15s WALL (     770 calls)
     newd         :     57.42s CPU     92.52s WALL (     770 calls)
                                       92.51s GPU  (     770 calls)
     PAW_pot      :  21724.57s CPU  27953.73s WALL (     802 calls)
     mix_rho      :     88.52s CPU    163.27s WALL (     745 calls)

     Called by c_bands:
     init_us_2    :    136.24s CPU    171.18s WALL (   19068 calls)
     init_us_2:cp :    114.56s CPU    144.20s WALL (     384 calls)
     init_us_2:gp :     21.20s CPU     26.47s WALL (   18684 calls)
     cegterg      :    867.14s CPU   1470.22s WALL (    8940 calls)

     Called by *egterg:
     cdiaghg      :     77.05s CPU    121.45s WALL (   29865 calls)
                                      121.29s GPU  (   29865 calls)
     h_psi        :    615.58s CPU   1059.61s WALL (   30357 calls)
                                     1056.99s GPU  (   30357 calls)
     s_psi        :     14.17s CPU     19.38s WALL (   30357 calls)
     g_psi        :      0.08s CPU      9.48s WALL (   21405 calls)
                                        9.30s GPU  (   21405 calls)

     Called by h_psi:
     h_psi:calbec :      1.00s CPU     42.75s WALL (   30357 calls)
                                       42.33s GPU  (   30357 calls)
     vloc_psi     :    550.18s CPU    952.83s WALL (   30357 calls)
                                      952.65s GPU  (   30357 calls)
     add_vuspsi   :     10.44s CPU     53.27s WALL (   30357 calls)
                                       52.82s GPU  (   30357 calls)

     General routines
     calbec       :    355.04s CPU    674.68s WALL (   41661 calls)
     fft          :     76.79s CPU     81.25s WALL (   10809 calls)
                                        4.05s GPU  (   10039 calls)
     ffts         :     19.99s CPU     20.24s WALL (    1515 calls)
                                        0.11s GPU  (     745 calls)
     fftw         :      3.30s CPU    835.22s WALL (  453970 calls)
                                      828.10s GPU  (  453970 calls)
     interpolate  :    109.84s CPU    116.77s WALL (     770 calls)
 
     Parallel routines
 
     PWSCF        :      7h 0m CPU      9h 9m WALL

 
   This run was terminated on:  16:16:43  29Jul2024            

=------------------------------------------------------------------------------=
   JOB DONE.
=------------------------------------------------------------------------------=
