
     Program MATDYN v.6.8 starts on  8Aug2024 at 11: 0:13 

     This program is part of the open-source Quantum ESPRESSO suite
     for quantum simulation of materials; please cite
         "P. Giannozzi et al., J. Phys.:Condens. Matter 21 395502 (2009);
         "P. Giannozzi et al., J. Phys.:Condens. Matter 29 465901 (2017);
         "P. Giannozzi et al., J. Chem. Phys. 152 154105 (2020);
          URL http://www.quantum-espresso.org", 
     in publications or presentations arising from this work. More details at
     http://www.quantum-espresso.org/quote

     Parallel version (MPI & OpenMP), running on       1 processor cores
     Number of MPI processes:                 1
     Threads/MPI process:                     1

     MPI processes distributed on     1 nodes
     7381 MiB available memory on the printing compute node when the environment starts

Norm of the difference between old and new effective charges:    0.00000000000000000000
Norm of the difference between old and new force-constants:   0.00500596051705419400
     Message from routine matdyn:
     Z* not found in file ta2ni3te5-151.fc, TO-LO splitting at q=0 will be absent!
     Message from routine matdyn:
     Z* not found in file ta2ni3te5-151.fc, TO-LO splitting at q=0 will be absent!

     MATDYN       :      7.39s CPU      7.78s WALL


   This run was terminated on:  11: 0:21   8Aug2024            

=------------------------------------------------------------------------------=
   JOB DONE.
=------------------------------------------------------------------------------=
