
     Program Q2R v.6.8 starts on  8Aug2024 at 10:57:15 

     This program is part of the open-source Quantum ESPRESSO suite
     for quantum simulation of materials; please cite
         "P. Giannozzi et al., J. Phys.:Condens. Matter 21 395502 (2009);
         "P. Giannozzi et al., J. Phys.:Condens. Matter 29 465901 (2017);
         "P. Giannozzi et al., J. Chem. Phys. 152 154105 (2020);
          URL http://www.quantum-espresso.org", 
     in publications or presentations arising from this work. More details at
     http://www.quantum-espresso.org/quote

     Parallel version (MPI & OpenMP), running on       1 processor cores
     Number of MPI processes:                 1
     Threads/MPI process:                     1

     MPI processes distributed on     1 nodes
     8586 MiB available memory on the printing compute node when the environment starts


     reading grid info from file ta2ni3te5.dyn0    
  reading force constants from file ta2ni3te5.dyn1
  Dielectric Tensor not found
  nqs=            1
 q=   0.00000000  0.00000000  0.00000000
  reading force constants from file ta2ni3te5.dyn2
  nqs=            2
 q=   0.00000000  0.96411385  0.00000000
 q=   0.00000000 -0.96411385  0.00000000
  reading force constants from file ta2ni3te5.dyn3
  nqs=            2
 q=   0.00000000  1.92822769  0.00000000
 q=   0.00000000 -1.92822769  0.00000000

      q-space grid ok, #points =    5

      fft-check success (sum of imaginary terms < 10^-12)

     Q2R          :      0.05s CPU      0.39s WALL


   This run was terminated on:  10:57:16   8Aug2024            

=------------------------------------------------------------------------------=
   JOB DONE.
=------------------------------------------------------------------------------=
