
     Program PWSCF v.6.8 starts on  7Aug2024 at 13:56:43 

     This program is part of the open-source Quantum ESPRESSO suite
     for quantum simulation of materials; please cite
         "P. Giannozzi et al., J. Phys.:Condens. Matter 21 395502 (2009);
         "P. Giannozzi et al., J. Phys.:Condens. Matter 29 465901 (2017);
         "P. Giannozzi et al., J. Chem. Phys. 152 154105 (2020);
          URL http://www.quantum-espresso.org", 
     in publications or presentations arising from this work. More details at
     http://www.quantum-espresso.org/quote

     Parallel version (MPI & OpenMP), running on     288 processor cores
     Number of MPI processes:               288
     Threads/MPI process:                     1

     MPI processes distributed on     6 nodes
     K-points division:     npool     =       6
     R & G space division:  proc/nbgrp/npool/nimage =      48
     124816 MiB available memory on the printing compute node when the environment starts

     Waiting for input...
     Reading input from standard input
Warning: card &CELL ignored
Warning: card CELL_DYNAMICS='BFGS' ignored
Warning: card PRESS=0.0 ignored
Warning: card CELL_DOFREE='2DXY' ignored
Warning: card / ignored

     Current dimensions of program PWSCF are:
     Max number of different atomic species (ntypx) = 10
     Max number of k-points (npk) =  40000
     Max angular momentum in pseudopotentials (lmaxx) =  4
     Message from routine read_pp_mesh:
     mismatch in mesh size, discarding the one in header
     Message from routine read_pp_mesh:
     mismatch in mesh size, discarding the one in header
     Message from routine read_pp_mesh:
     mismatch in mesh size, discarding the one in header
     Message from routine setup:
     using ibrav=0 with symmetry is DISCOURAGED, use correct ibrav instead

     Subspace diagonalization in iterative solution of the eigenvalue problem:
     one sub-group per band group will be used
     scalapack distributed-memory algorithm (size of sub-group:  6*  6 procs)


     Parallelization info
     --------------------
     sticks:   dense  smooth     PW     G-vecs:    dense   smooth      PW
     Min         183      91     25                40339    14255    2113
     Max         184      92     26                40356    14262    2122
     Sum        8805    4395   1237              1936537   684371  101699

     Using Slab Decomposition



     bravais-lattice index     =            0
     lattice parameter (alat)  =      33.3365  a.u.
     unit-cell volume          =   10906.8118 (a.u.)^3
     number of atoms/cell      =           20
     number of atomic types    =            3
     number of electrons       =       220.00
     number of Kohn-Sham states=          132
     kinetic-energy cutoff     =      60.0000  Ry
     charge density cutoff     =     480.0000  Ry
     scf convergence threshold =      1.0E-08
     mixing beta               =       0.2000
     number of iterations used =            8  plain     mixing
     Exchange-correlation= SLA PW PBX PBC
                           (   1   4   3   4   0   0   0)

     celldm(1)=  33.336472  celldm(2)=   0.000000  celldm(3)=   0.000000
     celldm(4)=   0.000000  celldm(5)=   0.000000  celldm(6)=   0.000000

     crystal axes: (cart. coord. in units of alat)
               a(1) = (   1.000000   0.000000   0.000000 )  
               a(2) = (   0.000000   0.207444   0.000000 )  
               a(3) = (   0.000000   0.000000   1.419179 )  

     reciprocal axes: (cart. coord. in units 2 pi/alat)
               b(1) = (  1.000000  0.000000  0.000000 )  
               b(2) = (  0.000000  4.820569  0.000000 )  
               b(3) = (  0.000000  0.000000  0.704633 )  


     PseudoPot. # 1 for Ta read from file:
     /home/lovelace/proj/proj909/eamouj78/2D-Ta2Ni3Te5/PHONONS-SR-PSEUDO/Ta.upf
     MD5 check sum: d865b2c2c09566b116f2b8decb2c153d
     Pseudo is Projector augmented-wave + core cor, Zval = 13.0
     Generated using ATOMPAW code
     Shape of augmentation charge: SINC**2
     Using radial grid of 2342 points,  6 beta functions with: 
                l(1) =   0
                l(2) =   0
                l(3) =   1
                l(4) =   1
                l(5) =   2
                l(6) =   2
     Q(r) pseudized with 0 coefficients 


     PseudoPot. # 2 for Ni read from file:
     /home/lovelace/proj/proj909/eamouj78/2D-Ta2Ni3Te5/PHONONS-SR-PSEUDO/Ni.upf
     MD5 check sum: 85a2a5d9d38f4289a1cc30d5adb66a03
     Pseudo is Projector augmented-wave + core cor, Zval = 18.0
     Generated using ATOMPAW code
     Shape of augmentation charge: SINC**2
     Using radial grid of 2342 points,  6 beta functions with: 
                l(1) =   0
                l(2) =   0
                l(3) =   1
                l(4) =   1
                l(5) =   2
                l(6) =   2
     Q(r) pseudized with 0 coefficients 


     PseudoPot. # 3 for Te read from file:
     /home/lovelace/proj/proj909/eamouj78/2D-Ta2Ni3Te5/PHONONS-SR-PSEUDO/Te.upf
     MD5 check sum: 8d958f193a7511a138982c2e72838810
     Pseudo is Projector augmented-wave + core cor, Zval =  6.0
     Generated using ATOMPAW code
     Shape of augmentation charge: SINC**2
     Using radial grid of 2342 points,  4 beta functions with: 
                l(1) =   0
                l(2) =   0
                l(3) =   1
                l(4) =   1
     Q(r) pseudized with 0 coefficients 


     atomic species   valence    mass     pseudopotential
        Ta            13.00   180.94790     Ta( 1.00)
        Ni            18.00    58.69340     Ni( 1.00)
        Te             6.00   127.60000     Te( 1.00)

      4 Sym. Ops. (no inversion) found ( 3 have fractional translation)



   Cartesian axes

     site n.     atom                  positions (alat units)
         1           Ta  tau(   1) = (   0.8725319   0.0518611   0.7053907  )
         2           Ta  tau(   2) = (   0.3725302   0.1555833   0.7138019  )
         3           Ta  tau(   3) = (   0.1284100   0.0518611   0.7053859  )
         4           Ta  tau(   4) = (   0.6284121   0.1555833   0.7138059  )
         5           Ni  tau(   5) = (   0.7292508   0.0518611   0.6667296  )
         6           Ni  tau(   6) = (   0.2292480   0.1555833   0.7524628  )
         7           Ni  tau(   7) = (   0.2716763   0.0518611   0.6667104  )
         8           Ni  tau(   8) = (   0.7716782   0.1555833   0.7524815  )
         9           Ni  tau(   9) = (   0.5004528   0.0518611   0.7011114  )
        10           Ni  tau(  10) = (   0.0004522   0.1555833   0.7180800  )
        11           Te  tau(  11) = (   0.8056987   0.1555833   0.5972039  )
        12           Te  tau(  12) = (   0.3056952   0.0518611   0.8219883  )
        13           Te  tau(  13) = (   0.6006275   0.0518611   0.5963046  )
        14           Te  tau(  14) = (   0.1006262   0.1555833   0.8228875  )
        15           Te  tau(  15) = (   0.1952121   0.1555833   0.5971887  )
        16           Te  tau(  16) = (   0.6952144   0.0518611   0.8220033  )
        17           Te  tau(  17) = (   0.4003073   0.0518611   0.5962951  )
        18           Te  tau(  18) = (   0.9003086   0.1555833   0.8228976  )
        19           Te  tau(  19) = (   0.0004788   0.0518611   0.6143424  )
        20           Te  tau(  20) = (   0.5004787   0.1555833   0.8048479  )

     number of k points=    12  Gaussian smearing, width (Ry)=  0.0020
                       cart. coord. in units 2pi/alat
        k(    1) = (   0.0000000   0.0000000   0.0000000), wk =   0.1000000
        k(    2) = (   0.0000000   0.4820569   0.0000000), wk =   0.2000000
        k(    3) = (   0.0000000   0.9641138   0.0000000), wk =   0.2000000
        k(    4) = (   0.0000000   1.4461708   0.0000000), wk =   0.2000000
        k(    5) = (   0.0000000   1.9282277   0.0000000), wk =   0.2000000
        k(    6) = (   0.0000000  -2.4102846   0.0000000), wk =   0.1000000
        k(    7) = (  -0.5000000   0.0000000   0.0000000), wk =   0.1000000
        k(    8) = (  -0.5000000   0.4820569   0.0000000), wk =   0.2000000
        k(    9) = (  -0.5000000   0.9641138   0.0000000), wk =   0.2000000
        k(   10) = (  -0.5000000   1.4461708   0.0000000), wk =   0.2000000
        k(   11) = (  -0.5000000   1.9282277   0.0000000), wk =   0.2000000
        k(   12) = (  -0.5000000  -2.4102846   0.0000000), wk =   0.1000000

     Dense  grid:  1936537 G-vectors     FFT dimensions: ( 240,  50, 360)

     Smooth grid:   684371 G-vectors     FFT dimensions: ( 180,  36, 240)

     Estimated max dynamical RAM per process >      71.06 MB

     Estimated total dynamical RAM >      17.68 GB
 ----2D----2D----2D----2D----2D----2D----2D----2D----2D----2D----2D----2D
  The code is running with the 2D cutoff
  Please refer to:
  Sohier, T., Calandra, M., & Mauri, F. (2017), 
  Density functional perturbation theory for gated two-dimensional heterostructures:
  Theoretical developments and application to flexural phonons in graphene.
  Physical Review B, 96(7), 75448. https://doi.org/10.1103/PhysRevB.96.075448
 ----2D----2D----2D----2D----2D----2D----2D----2D----2D----2D----2D----2D

     Initial potential from superposition of free atoms

     starting charge  219.99272, renormalised to  220.00000

     negative rho (up, down):  5.146E-02 0.000E+00
     Starting wfcs are  260 randomized atomic wfcs
     Checking if some PAW data can be deallocated... 

     total cpu time spent up to now is       12.6 secs

     Self-consistent Calculation

     iteration #  1     ecut=    60.00 Ry     beta= 0.20
     Davidson diagonalization with overlap
     ethr =  1.00E-02,  avg # of iterations =  2.9

     negative rho (up, down):  5.193E-02 0.000E+00

     total cpu time spent up to now is       15.6 secs

     total energy              =   -9108.00038644 Ry
     estimated scf accuracy    <       7.53126970 Ry

     iteration #  2     ecut=    60.00 Ry     beta= 0.20
     Davidson diagonalization with overlap
     ethr =  3.42E-03,  avg # of iterations =  3.0

     negative rho (up, down):  5.326E-02 0.000E+00

     total cpu time spent up to now is       18.3 secs

     total energy              =   -9108.32933722 Ry
     estimated scf accuracy    <      12.21027506 Ry

     iteration #  3     ecut=    60.00 Ry     beta= 0.20
     Davidson diagonalization with overlap
     ethr =  3.42E-03,  avg # of iterations =  1.1

     negative rho (up, down):  5.410E-02 0.000E+00

     total cpu time spent up to now is       20.8 secs

     total energy              =   -9109.84233861 Ry
     estimated scf accuracy    <       2.33028155 Ry

     iteration #  4     ecut=    60.00 Ry     beta= 0.20
     Davidson diagonalization with overlap
     ethr =  1.06E-03,  avg # of iterations =  1.5

     negative rho (up, down):  5.530E-02 0.000E+00

     total cpu time spent up to now is       23.3 secs

     total energy              =   -9109.92989222 Ry
     estimated scf accuracy    <       0.79116257 Ry

     iteration #  5     ecut=    60.00 Ry     beta= 0.20
     Davidson diagonalization with overlap
     ethr =  3.60E-04,  avg # of iterations =  1.5

     negative rho (up, down):  6.157E-02 0.000E+00

     total cpu time spent up to now is       26.0 secs

     total energy              =   -9109.77291831 Ry
     estimated scf accuracy    <       0.45243558 Ry

     iteration #  6     ecut=    60.00 Ry     beta= 0.20
     Davidson diagonalization with overlap
     ethr =  2.06E-04,  avg # of iterations =  5.8

     negative rho (up, down):  6.192E-02 0.000E+00

     total cpu time spent up to now is       29.4 secs

     total energy              =   -9109.86107463 Ry
     estimated scf accuracy    <       0.64091974 Ry

     iteration #  7     ecut=    60.00 Ry     beta= 0.20
     Davidson diagonalization with overlap
     ethr =  2.06E-04,  avg # of iterations =  1.0

     negative rho (up, down):  6.204E-02 0.000E+00

     total cpu time spent up to now is       31.8 secs

     total energy              =   -9109.87907306 Ry
     estimated scf accuracy    <       0.06410883 Ry

     iteration #  8     ecut=    60.00 Ry     beta= 0.20
     Davidson diagonalization with overlap
     ethr =  2.91E-05,  avg # of iterations =  5.9

     negative rho (up, down):  6.335E-02 0.000E+00

     total cpu time spent up to now is       35.3 secs

     total energy              =   -9109.88113130 Ry
     estimated scf accuracy    <       0.00792541 Ry

     iteration #  9     ecut=    60.00 Ry     beta= 0.20
     Davidson diagonalization with overlap
     ethr =  3.60E-06,  avg # of iterations =  9.6

     negative rho (up, down):  6.473E-02 0.000E+00

     total cpu time spent up to now is       40.3 secs

     total energy              =   -9109.87855844 Ry
     estimated scf accuracy    <       0.10657704 Ry

     iteration # 10     ecut=    60.00 Ry     beta= 0.20
     Davidson diagonalization with overlap
     ethr =  3.60E-06,  avg # of iterations =  4.0

     negative rho (up, down):  6.521E-02 0.000E+00

     total cpu time spent up to now is       44.2 secs

     total energy              =   -9109.88261709 Ry
     estimated scf accuracy    <       0.00810114 Ry

     iteration # 11     ecut=    60.00 Ry     beta= 0.20
     Davidson diagonalization with overlap
     ethr =  3.60E-06,  avg # of iterations =  2.0

     negative rho (up, down):  6.539E-02 0.000E+00

     total cpu time spent up to now is       47.0 secs

     total energy              =   -9109.88346765 Ry
     estimated scf accuracy    <       0.00022568 Ry

     iteration # 12     ecut=    60.00 Ry     beta= 0.20
     Davidson diagonalization with overlap
     ethr =  1.03E-07,  avg # of iterations =  4.8

     negative rho (up, down):  6.561E-02 0.000E+00

     total cpu time spent up to now is       51.4 secs

     total energy              =   -9109.88354991 Ry
     estimated scf accuracy    <       0.00025626 Ry

     iteration # 13     ecut=    60.00 Ry     beta= 0.20
     Davidson diagonalization with overlap
     ethr =  1.03E-07,  avg # of iterations =  1.7

     negative rho (up, down):  6.564E-02 0.000E+00

     total cpu time spent up to now is       53.9 secs

     total energy              =   -9109.88356945 Ry
     estimated scf accuracy    <       0.00006159 Ry

     iteration # 14     ecut=    60.00 Ry     beta= 0.20
     Davidson diagonalization with overlap
     ethr =  2.80E-08,  avg # of iterations =  1.4

     negative rho (up, down):  6.569E-02 0.000E+00

     total cpu time spent up to now is       56.5 secs

     total energy              =   -9109.88357503 Ry
     estimated scf accuracy    <       0.00002596 Ry

     iteration # 15     ecut=    60.00 Ry     beta= 0.20
     Davidson diagonalization with overlap
     ethr =  1.18E-08,  avg # of iterations =  1.9

     negative rho (up, down):  6.568E-02 0.000E+00

     total cpu time spent up to now is       59.3 secs

     total energy              =   -9109.88357807 Ry
     estimated scf accuracy    <       0.00000571 Ry

     iteration # 16     ecut=    60.00 Ry     beta= 0.20
     Davidson diagonalization with overlap
     ethr =  2.60E-09,  avg # of iterations =  2.0

     negative rho (up, down):  6.565E-02 0.000E+00

     total cpu time spent up to now is       62.7 secs

     total energy              =   -9109.88357872 Ry
     estimated scf accuracy    <       0.00000106 Ry

     iteration # 17     ecut=    60.00 Ry     beta= 0.20
     Davidson diagonalization with overlap
     ethr =  4.81E-10,  avg # of iterations =  3.0

     negative rho (up, down):  6.563E-02 0.000E+00

     total cpu time spent up to now is       65.8 secs

     total energy              =   -9109.88357886 Ry
     estimated scf accuracy    <       0.00000044 Ry

     iteration # 18     ecut=    60.00 Ry     beta= 0.20
     Davidson diagonalization with overlap
     ethr =  1.99E-10,  avg # of iterations =  3.0

     negative rho (up, down):  6.561E-02 0.000E+00

     total cpu time spent up to now is       68.7 secs

     total energy              =   -9109.88357894 Ry
     estimated scf accuracy    <       0.00000042 Ry

     iteration # 19     ecut=    60.00 Ry     beta= 0.20
     Davidson diagonalization with overlap
     ethr =  1.90E-10,  avg # of iterations =  1.8

     negative rho (up, down):  6.560E-02 0.000E+00

     total cpu time spent up to now is       71.4 secs

     total energy              =   -9109.88357899 Ry
     estimated scf accuracy    <       0.00000005 Ry

     iteration # 20     ecut=    60.00 Ry     beta= 0.20
     Davidson diagonalization with overlap
     ethr =  2.11E-11,  avg # of iterations =  4.6

     negative rho (up, down):  6.559E-02 0.000E+00

     total cpu time spent up to now is       74.8 secs

     total energy              =   -9109.88357901 Ry
     estimated scf accuracy    <       0.00000001 Ry

     iteration # 21     ecut=    60.00 Ry     beta= 0.20
     Davidson diagonalization with overlap
     ethr =  4.63E-12,  avg # of iterations =  2.2

     negative rho (up, down):  6.557E-02 0.000E+00

     total cpu time spent up to now is       77.7 secs

     End of self-consistent calculation

          k = 0.0000 0.0000 0.0000 ( 85743 PWs)   bands (ev):

  -107.5456-107.5445-107.5342-107.5332-107.1626-107.1543 -72.8732 -72.8721
   -72.8653 -72.8648 -68.1192 -68.1182 -68.1148 -68.1137 -67.9547 -67.9536
   -67.8965 -67.8954 -67.8387 -67.8376 -67.7973 -67.7962 -67.6639 -67.6555
   -67.6301 -67.6218 -67.4401 -67.4318 -39.3662 -39.3648 -39.3586 -39.3574
   -39.3081 -39.3036 -39.3006 -39.2996 -39.2994 -39.2950 -39.2927 -39.2921
   -17.1463 -16.8589 -16.7440 -16.2954 -16.2582 -16.0519 -15.9911 -15.9769
   -15.8545 -15.6586 -10.3719 -10.1205  -9.9318  -9.8809  -9.6393  -9.5978
    -9.5847  -8.9681  -8.8309  -8.4102  -8.3362  -8.0186  -7.9610  -7.9591
    -7.8623  -7.8379  -7.8377  -7.7873  -7.4422  -7.4407  -7.2680  -7.1046
    -6.9857  -6.9283  -6.8986  -6.8196  -6.7792  -6.6287  -6.5132  -6.5082
    -6.4555  -6.3285  -6.3243  -6.1831  -6.1436  -6.1002  -6.0947  -6.0270
    -5.9920  -5.8674  -5.7845  -5.7046  -5.5187  -5.4933  -5.4876  -5.4491
    -5.3472  -5.3468  -5.2692  -5.2510  -5.1808  -5.1001  -4.9903  -4.8785
    -4.8400  -4.7215  -4.6413  -4.5542  -4.4196  -4.1352  -4.1334  -4.1293
    -3.3780  -3.3715  -3.0841  -3.0731  -2.9677  -2.8322  -2.6728  -2.6514
    -2.4772  -2.2721  -2.0700  -1.9724  -1.8041  -1.5553  -1.0922  -0.8911
    -0.8565  -0.7989  -0.7913  -0.5736

          k = 0.0000 0.4821 0.0000 ( 85711 PWs)   bands (ev):

  -107.5453-107.5443-107.5345-107.5334-107.1626-107.1543 -72.8731 -72.8719
   -72.8652 -72.8646 -68.1191 -68.1180 -68.1150 -68.1139 -67.9538 -67.9527
   -67.8993 -67.8982 -67.8363 -67.8353 -67.7978 -67.7967 -67.6639 -67.6555
   -67.6301 -67.6218 -67.4401 -67.4318 -39.3653 -39.3639 -39.3577 -39.3565
   -39.3077 -39.3072 -39.3066 -39.3029 -39.2997 -39.2990 -39.2986 -39.2943
   -17.0516 -16.7666 -16.6602 -16.2455 -16.1881 -16.0059 -15.9327 -15.9248
   -15.7986 -15.6224 -10.2862 -10.0384  -9.8375  -9.7792  -9.5704  -9.5188
    -9.4845  -8.8897  -8.7664  -8.3738  -8.3183  -8.1453  -8.0448  -8.0386
    -7.9426  -7.9392  -7.8164  -7.8084  -7.4601  -7.4387  -7.2855  -7.2027
    -7.0081  -7.0077  -6.9881  -6.9259  -6.9249  -6.8631  -6.7164  -6.4503
    -6.4052  -6.3737  -6.3431  -6.3363  -6.2961  -6.1589  -6.0388  -6.0341
    -6.0126  -5.9467  -5.9218  -5.7785  -5.7441  -5.7423  -5.5877  -5.5619
    -5.4767  -5.4680  -5.3637  -5.1700  -5.1618  -5.1315  -5.1262  -4.8854
    -4.7901  -4.7869  -4.7364  -4.6273  -4.3236  -4.3076  -4.0405  -3.8477
    -3.5408  -3.3755  -3.1848  -3.0720  -2.9935  -2.9154  -2.7767  -2.5932
    -2.4746  -2.3238  -2.2322  -2.0936  -1.8740  -1.5702  -1.5321  -1.3727
    -1.2988  -1.1697  -0.7625  -0.6185

          k = 0.0000 0.9641 0.0000 ( 85653 PWs)   bands (ev):

  -107.5445-107.5434-107.5353-107.5342-107.1626-107.1543 -72.8727 -72.8715
   -72.8648 -72.8642 -68.1189 -68.1178 -68.1153 -68.1142 -67.9513 -67.9502
   -67.9061 -67.9050 -67.8305 -67.8295 -67.7992 -67.7981 -67.6638 -67.6555
   -67.6301 -67.6218 -67.4401 -67.4318 -39.3630 -39.3615 -39.3554 -39.3542
   -39.3259 -39.3248 -39.3180 -39.3173 -39.3049 -39.3009 -39.2966 -39.2927
   -16.7800 -16.5036 -16.4244 -16.1056 -16.0029 -15.8918 -15.7720 -15.7624
   -15.6497 -15.5258 -10.0774  -9.8308  -9.5988  -9.5525  -9.3962  -9.2915
    -9.2345  -8.7994  -8.7260  -8.4846  -8.3667  -8.3191  -8.2294  -8.2189
    -8.1402  -8.1211  -8.0186  -7.8436  -7.7395  -7.6605  -7.4317  -7.4117
    -7.4028  -7.2408  -7.2209  -7.0839  -7.0048  -6.9273  -6.8225  -6.7784
    -6.6705  -6.6236  -6.5366  -6.5180  -6.4162  -6.3278  -6.2489  -6.2418
    -6.1848  -6.0459  -5.9670  -5.9237  -5.8984  -5.7335  -5.7115  -5.7059
    -5.6135  -5.5200  -5.4850  -5.2822  -5.2174  -5.1408  -5.1363  -5.0930
    -5.0558  -4.9855  -4.7823  -4.6486  -4.5459  -4.5120  -3.7201  -3.5378
    -3.5241  -3.2430  -3.2174  -3.1615  -3.0700  -2.9661  -2.9473  -2.7439
    -2.4497  -2.4104  -2.3804  -2.1163  -1.9900  -1.8149  -1.7178  -1.6700
    -1.5031  -1.4051  -0.3476  -0.2768

          k = 0.0000 1.4462 0.0000 ( 85591 PWs)   bands (ev):

  -107.5432-107.5422-107.5366-107.5355-107.1626-107.1543 -72.8721 -72.8710
   -72.8643 -72.8637 -68.1185 -68.1175 -68.1159 -68.1148 -67.9469 -67.9458
   -67.9149 -67.9138 -67.8234 -67.8224 -67.8017 -67.8006 -67.6638 -67.6555
   -67.6301 -67.6218 -67.4402 -67.4319 -39.3602 -39.3587 -39.3526 -39.3514
   -39.3483 -39.3472 -39.3405 -39.3397 -39.3021 -39.2985 -39.2942 -39.2906
   -16.3744 -16.1186 -16.0939 -15.8999 -15.7721 -15.7559 -15.5619 -15.5103
   -15.4712 -15.4033  -9.9710  -9.7349  -9.6078  -9.5632  -9.2578  -9.2458
    -9.0989  -9.0444  -8.9124  -8.7492  -8.6084  -8.5426  -8.4286  -8.2953
    -8.2392  -8.1886  -8.0610  -7.9946  -7.9291  -7.7470  -7.6697  -7.6388
    -7.5419  -7.3643  -7.2657  -7.2448  -7.2227  -7.0874  -6.9197  -6.8725
    -6.8610  -6.8355  -6.7066  -6.6118  -6.4898  -6.3720  -6.3450  -6.3132
    -6.2972  -6.1748  -6.1706  -6.0509  -5.9517  -5.8370  -5.7744  -5.7164
    -5.6176  -5.6097  -5.5941  -5.5489  -5.3082  -5.3078  -5.3024  -5.2830
    -5.0567  -5.0174  -4.9921  -4.7862  -4.7683  -4.7064  -3.6899  -3.5599
    -3.4155  -3.2403  -3.1454  -3.0227  -2.8823  -2.8448  -2.7498  -2.7355
    -2.4449  -2.3656  -2.3598  -2.0231  -1.9702  -1.7630  -1.5773  -1.5660
    -1.3043  -1.2355  -0.5901  -0.5374

          k = 0.0000 1.9282 0.0000 ( 85475 PWs)   bands (ev):

  -107.5417-107.5406-107.5381-107.5370-107.1626-107.1543 -72.8717 -72.8706
   -72.8638 -72.8633 -68.1180 -68.1170 -68.1167 -68.1155 -67.9406 -67.9395
   -67.9241 -67.9230 -67.8164 -67.8153 -67.8054 -67.8043 -67.6639 -67.6556
   -67.6301 -67.6218 -67.4400 -67.4317 -39.3667 -39.3655 -39.3589 -39.3579
   -39.3577 -39.3561 -39.3501 -39.3488 -39.2999 -39.2965 -39.2921 -39.2889
   -15.9258 -15.8120 -15.7203 -15.6509 -15.6380 -15.5766 -15.3988 -15.3809
   -15.3000 -15.2845 -10.2163 -10.1823 -10.1374 -10.1095  -9.4593  -9.4187
    -9.2240  -9.1641  -8.9846  -8.8610  -8.5592  -8.4875  -8.4386  -8.1509
    -8.1415  -8.0038  -7.9023  -7.8847  -7.7987  -7.7774  -7.6276  -7.5988
    -7.5577  -7.5497  -7.4520  -7.4254  -7.2043  -7.1785  -7.0545  -7.0465
    -6.8302  -6.7920  -6.7517  -6.6641  -6.4345  -6.3981  -6.3782  -6.3519
    -6.3455  -6.2885  -6.2484  -6.0980  -6.0828  -5.9963  -5.9201  -5.8501
    -5.6628  -5.6387  -5.6050  -5.5818  -5.5175  -5.4337  -5.3838  -5.3443
    -5.1916  -5.1117  -5.0769  -4.9536  -4.9124  -4.9009  -3.8356  -3.7473
    -3.2531  -3.1378  -3.1016  -3.0130  -2.9001  -2.5148  -2.4468  -2.3555
    -2.3181  -2.2834  -2.1083  -2.0687  -1.9574  -1.7163  -1.4306  -1.3734
    -1.1607  -0.9444  -0.8839  -0.8659

          k = 0.0000-2.4103 0.0000 ( 85394 PWs)   bands (ev):

  -107.5400-107.5398-107.5392-107.5384-107.1626-107.1543 -72.8716 -72.8704
   -72.8637 -72.8631 -68.1176 -68.1174 -68.1168 -68.1160 -67.9327 -67.9326
   -67.9320 -67.9312 -67.8104 -67.8102 -67.8096 -67.8089 -67.6639 -67.6556
   -67.6301 -67.6218 -67.4398 -67.4315 -39.3735 -39.3723 -39.3657 -39.3647
   -39.3569 -39.3553 -39.3492 -39.3480 -39.2990 -39.2958 -39.2914 -39.2882
   -15.6978 -15.6938 -15.5226 -15.5187 -15.5151 -15.5094 -15.4077 -15.3993
   -15.2343 -15.2303 -10.3961 -10.3915 -10.3908 -10.3891  -9.6419  -9.6363
    -9.2243  -9.2225  -9.0281  -9.0262  -8.3356  -8.3343  -8.1899  -8.1877
    -8.0566  -8.0540  -7.7464  -7.7441  -7.6898  -7.6847  -7.6543  -7.6525
    -7.6525  -7.6497  -7.3646  -7.3632  -7.2827  -7.2805  -7.1503  -7.1477
    -6.7668  -6.7640  -6.6615  -6.6598  -6.4338  -6.4294  -6.3768  -6.3764
    -6.3607  -6.3602  -6.1256  -6.1232  -6.0590  -6.0579  -6.0536  -6.0526
    -5.6686  -5.6665  -5.5363  -5.5323  -5.5221  -5.5185  -5.4074  -5.4061
    -5.3004  -5.3000  -5.1191  -5.1177  -4.9041  -4.9012  -3.8356  -3.8288
    -3.1495  -3.1458  -3.0769  -3.0707  -2.7973  -2.7960  -2.3899  -2.3858
    -2.0257  -2.0194  -1.9184  -1.9158  -1.8464  -1.8391  -1.4932  -1.4924
    -1.1804  -1.1780  -0.8215  -0.8203

          k =-0.5000 0.0000 0.0000 ( 85754 PWs)   bands (ev):

  -107.5456-107.5445-107.5342-107.5332-107.1626-107.1543 -72.8732 -72.8721
   -72.8653 -72.8648 -68.1192 -68.1182 -68.1148 -68.1137 -67.9546 -67.9535
   -67.8966 -67.8955 -67.8387 -67.8377 -67.7974 -67.7963 -67.6639 -67.6555
   -67.6301 -67.6219 -67.4401 -67.4317 -39.3662 -39.3648 -39.3586 -39.3574
   -39.3079 -39.3041 -39.3006 -39.2996 -39.2989 -39.2952 -39.2927 -39.2921
   -17.0600 -17.0563 -16.4541 -16.4526 -16.2350 -16.2316 -15.9348 -15.9288
   -15.7417 -15.7403 -10.2823 -10.2801  -9.9365  -9.9328  -9.5935  -9.5900
    -9.2250  -9.2223  -8.7692  -8.7653  -8.0701  -8.0680  -7.9067  -7.9053
    -7.8511  -7.8501  -7.7128  -7.7120  -7.4397  -7.4386  -7.4028  -7.4002
    -6.9696  -6.9649  -6.8436  -6.8427  -6.7181  -6.7170  -6.4730  -6.4723
    -6.3741  -6.3737  -6.1951  -6.1931  -6.1668  -6.1650  -6.0214  -6.0208
    -5.9277  -5.9265  -5.8118  -5.8085  -5.5069  -5.5048  -5.3680  -5.3657
    -5.3518  -5.3500  -5.3011  -5.2995  -5.1726  -5.1718  -4.8518  -4.8503
    -4.8491  -4.8473  -4.5867  -4.5855  -4.2859  -4.2796  -4.1382  -4.1375
    -3.2197  -3.2192  -3.1968  -3.1920  -2.8583  -2.8568  -2.8375  -2.8364
    -2.3779  -2.3733  -1.8838  -1.8770  -1.7975  -1.7934  -0.9288  -0.9266
    -0.9038  -0.9004  -0.6577  -0.6545

          k =-0.5000 0.4821 0.0000 ( 85716 PWs)   bands (ev):

  -107.5453-107.5443-107.5345-107.5334-107.1626-107.1543 -72.8731 -72.8719
   -72.8652 -72.8646 -68.1192 -68.1181 -68.1150 -68.1139 -67.9538 -67.9527
   -67.8992 -67.8981 -67.8363 -67.8353 -67.7977 -67.7967 -67.6639 -67.6556
   -67.6301 -67.6218 -67.4401 -67.4317 -39.3653 -39.3639 -39.3577 -39.3565
   -39.3077 -39.3071 -39.3066 -39.3033 -39.2997 -39.2991 -39.2982 -39.2945
   -16.9666 -16.9629 -16.3736 -16.3721 -16.1870 -16.1835 -15.8798 -15.8741
   -15.6987 -15.6975 -10.1957 -10.1936  -9.8408  -9.8372  -9.5085  -9.5048
    -9.1523  -9.1499  -8.7171  -8.7134  -8.1592  -8.1573  -8.0091  -8.0085
    -7.8333  -7.8320  -7.7035  -7.7025  -7.6081  -7.6070  -7.2843  -7.2836
    -7.1068  -7.1019  -6.9295  -6.9285  -6.8903  -6.8890  -6.5617  -6.5609
    -6.3825  -6.3817  -6.3286  -6.3267  -6.1639  -6.1631  -6.0809  -6.0782
    -5.9870  -5.9869  -5.8888  -5.8853  -5.7177  -5.7163  -5.5883  -5.5869
    -5.4299  -5.4291  -5.2897  -5.2870  -5.1201  -5.1191  -4.9865  -4.9856
    -4.8194  -4.8167  -4.7003  -4.6986  -4.2850  -4.2803  -3.9520  -3.9497
    -3.4407  -3.4401  -3.0612  -3.0573  -2.9374  -2.9360  -2.8257  -2.8224
    -2.4629  -2.4611  -2.0869  -2.0825  -1.8273  -1.8254  -1.3885  -1.3868
    -1.2537  -1.2499  -0.6239  -0.6222

          k =-0.5000 0.9641 0.0000 ( 85742 PWs)   bands (ev):

  -107.5445-107.5434-107.5353-107.5342-107.1626-107.1543 -72.8727 -72.8715
   -72.8648 -72.8642 -68.1190 -68.1180 -68.1155 -68.1144 -67.9513 -67.9502
   -67.9061 -67.9050 -67.8306 -67.8295 -67.7993 -67.7982 -67.6640 -67.6557
   -67.6301 -67.6219 -67.4402 -67.4319 -39.3630 -39.3615 -39.3554 -39.3542
   -39.3259 -39.3248 -39.3180 -39.3173 -39.3048 -39.3012 -39.2964 -39.2928
   -16.6997 -16.6960 -16.1491 -16.1475 -16.0544 -16.0508 -15.7341 -15.7294
   -15.5787 -15.5782  -9.9794  -9.9776  -9.5947  -9.5917  -9.2991  -9.2947
    -9.0502  -9.0498  -8.6325  -8.6321  -8.3782  -8.3771  -8.2706  -8.2693
    -7.9273  -7.9245  -7.8146  -7.8134  -7.7876  -7.7817  -7.4956  -7.4945
    -7.3835  -7.3825  -7.1460  -7.1443  -6.9447  -6.9443  -6.8341  -6.8321
    -6.6380  -6.6364  -6.5687  -6.5658  -6.3292  -6.3284  -6.2457  -6.2443
    -6.1224  -6.1214  -5.9768  -5.9716  -5.7743  -5.7734  -5.6901  -5.6879
    -5.5028  -5.5019  -5.4611  -5.4598  -5.2268  -5.2259  -5.1269  -5.1263
    -5.0167  -5.0153  -4.6520  -4.6504  -4.5099  -4.5038  -3.6680  -3.6667
    -3.3804  -3.3797  -3.1553  -3.1507  -2.9448  -2.9430  -2.8209  -2.8188
    -2.6305  -2.6285  -2.2391  -2.2371  -1.8953  -1.8935  -1.6465  -1.6420
    -1.5014  -1.4999  -0.2782  -0.2764

          k =-0.5000 1.4462 0.0000 ( 85596 PWs)   bands (ev):

  -107.5432-107.5422-107.5366-107.5355-107.1626-107.1543 -72.8721 -72.8710
   -72.8643 -72.8637 -68.1186 -68.1175 -68.1159 -68.1148 -67.9469 -67.9458
   -67.9149 -67.9138 -67.8234 -67.8224 -67.8017 -67.8007 -67.6639 -67.6555
   -67.6301 -67.6218 -67.4402 -67.4318 -39.3602 -39.3587 -39.3526 -39.3514
   -39.3483 -39.3472 -39.3405 -39.3397 -39.3021 -39.2986 -39.2940 -39.2906
   -16.3045 -16.3006 -15.8748 -15.8709 -15.8383 -15.8367 -15.5549 -15.5511
   -15.4152 -15.4148  -9.8754  -9.8745  -9.4939  -9.4925  -9.3558  -9.3526
    -9.1286  -9.1242  -8.7565  -8.7535  -8.6107  -8.6066  -8.2804  -8.2793
    -8.1856  -8.1846  -8.0777  -8.0754  -7.8313  -7.8304  -7.7003  -7.6984
    -7.3625  -7.3596  -7.2813  -7.2798  -7.1588  -7.1552  -7.0127  -7.0123
    -6.7719  -6.7700  -6.7016  -6.6993  -6.4244  -6.4237  -6.3267  -6.3234
    -6.2498  -6.2465  -6.1370  -6.1338  -5.8144  -5.8128  -5.7552  -5.7551
    -5.6011  -5.5993  -5.5855  -5.5829  -5.3757  -5.3712  -5.2407  -5.2401
    -5.0844  -5.0804  -4.8645  -4.8627  -4.7272  -4.7231  -3.6617  -3.6566
    -3.1886  -3.1876  -3.0548  -3.0544  -2.8776  -2.8731  -2.7997  -2.7985
    -2.4839  -2.4793  -2.2569  -2.2559  -1.7720  -1.7698  -1.5385  -1.5355
    -1.3826  -1.3788  -0.4911  -0.4890

          k =-0.5000 1.9282 0.0000 ( 85412 PWs)   bands (ev):

  -107.5417-107.5406-107.5381-107.5370-107.1626-107.1543 -72.8717 -72.8706
   -72.8638 -72.8633 -68.1181 -68.1171 -68.1166 -68.1155 -67.9405 -67.9394
   -67.9241 -67.9230 -67.8163 -67.8153 -67.8053 -67.8042 -67.6639 -67.6555
   -67.6300 -67.6217 -67.4400 -67.4317 -39.3667 -39.3655 -39.3589 -39.3579
   -39.3577 -39.3561 -39.3501 -39.3488 -39.2999 -39.2965 -39.2921 -39.2889
   -15.8827 -15.8791 -15.6973 -15.6925 -15.5739 -15.5708 -15.4149 -15.4080
   -15.2852 -15.2833 -10.2625 -10.2597 -10.0306 -10.0262  -9.4913  -9.4863
    -9.1995  -9.1983  -8.9133  -8.9121  -8.5407  -8.5392  -8.2971  -8.2946
    -8.0776  -8.0746  -7.9275  -7.9253  -7.7421  -7.7415  -7.6241  -7.6239
    -7.5141  -7.5107  -7.3744  -7.3731  -7.2202  -7.2196  -7.0499  -7.0487
    -6.8668  -6.8651  -6.6674  -6.6665  -6.5044  -6.5031  -6.3620  -6.3591
    -6.3056  -6.3048  -6.2158  -6.2154  -5.9223  -5.9214  -5.8958  -5.8948
    -5.6859  -5.6818  -5.5986  -5.5947  -5.4959  -5.4939  -5.2989  -5.2970
    -5.2315  -5.2311  -5.0073  -5.0013  -4.8945  -4.8931  -3.7947  -3.7883
    -3.1577  -3.1560  -2.9794  -2.9792  -2.7934  -2.7912  -2.3917  -2.3912
    -2.3191  -2.3139  -2.1118  -2.1079  -1.8858  -1.8811  -1.3275  -1.3257
    -1.1843  -1.1817  -0.8307  -0.8296

          k =-0.5000-2.4103 0.0000 ( 85316 PWs)   bands (ev):

  -107.5400-107.5398-107.5392-107.5384-107.1626-107.1543 -72.8716 -72.8704
   -72.8637 -72.8631 -68.1174 -68.1172 -68.1166 -68.1159 -67.9327 -67.9326
   -67.9320 -67.9312 -67.8104 -67.8102 -67.8095 -67.8089 -67.6638 -67.6555
   -67.6301 -67.6218 -67.4398 -67.4315 -39.3735 -39.3723 -39.3657 -39.3647
   -39.3569 -39.3553 -39.3492 -39.3480 -39.2990 -39.2958 -39.2914 -39.2882
   -15.6978 -15.6937 -15.5251 -15.5209 -15.5109 -15.5052 -15.4113 -15.4027
   -15.2326 -15.2288 -10.5005 -10.4971 -10.2611 -10.2562  -9.6646  -9.6582
    -9.2144  -9.2118  -9.0545  -9.0533  -8.2846  -8.2817  -8.2785  -8.2780
    -7.9722  -7.9698  -7.8188  -7.8165  -7.7285  -7.7254  -7.6603  -7.6552
    -7.6145  -7.6119  -7.4188  -7.4160  -7.1282  -7.1277  -7.0645  -7.0634
    -6.8824  -6.8812  -6.6532  -6.6524  -6.4735  -6.4725  -6.4310  -6.4275
    -6.3401  -6.3400  -6.1182  -6.1154  -6.0745  -6.0732  -5.9667  -5.9666
    -5.7106  -5.7078  -5.5550  -5.5517  -5.5191  -5.5148  -5.3712  -5.3680
    -5.3390  -5.3336  -5.1148  -5.1144  -4.9000  -4.8972  -3.8294  -3.8226
    -3.1054  -3.1036  -3.0189  -3.0186  -2.8946  -2.8931  -2.3072  -2.3051
    -2.1227  -2.1181  -1.9335  -1.9281  -1.8463  -1.8389  -1.4452  -1.4429
    -1.3011  -1.3010  -0.6135  -0.6114

     the Fermi energy is    -4.1512 ev

!    total energy              =   -9109.88357901 Ry

     total all-electron energy =     -9109.883579 Ry
     estimated scf accuracy    <          4.5E-09 Ry
     smearing contrib. (-TS)   =      -0.00019544 Ry
     internal energy E=F+TS    =   -9109.88338357 Ry

     The total energy is F=E-TS. E is the sum of the following terms:
     one-electron contribution =  -26251.95626086 Ry
     hartree contribution      =   12950.77418513 Ry
     xc contribution           =    -364.94752667 Ry
     ewald contribution        =   10823.96024397 Ry
     one-center paw contrib.   =   -6267.71402515 Ry

     convergence has been achieved in  21 iterations

     negative rho (up, down):  6.557E-02 0.000E+00

     Forces acting on atoms (cartesian axes, Ry/au):

     atom    1 type  1   force =    -0.00000611    0.00000000   -0.00002344
     atom    2 type  1   force =    -0.00000611    0.00000000    0.00002344
     atom    3 type  1   force =     0.00002145   -0.00000000   -0.00003396
     atom    4 type  1   force =     0.00002145    0.00000000    0.00003396
     atom    5 type  2   force =    -0.00003526    0.00000000    0.00003357
     atom    6 type  2   force =    -0.00003526    0.00000000   -0.00003357
     atom    7 type  2   force =     0.00001368    0.00000000    0.00000802
     atom    8 type  2   force =     0.00001368    0.00000000   -0.00000802
     atom    9 type  2   force =     0.00000318    0.00000000    0.00000880
     atom   10 type  2   force =     0.00000318    0.00000000   -0.00000880
     atom   11 type  3   force =    -0.00000072    0.00000000   -0.00001322
     atom   12 type  3   force =    -0.00000072    0.00000000    0.00001322
     atom   13 type  3   force =    -0.00000401    0.00000000    0.00000288
     atom   14 type  3   force =    -0.00000401    0.00000000   -0.00000288
     atom   15 type  3   force =     0.00000396    0.00000000   -0.00001030
     atom   16 type  3   force =     0.00000396    0.00000000    0.00001030
     atom   17 type  3   force =    -0.00000035    0.00000000    0.00000069
     atom   18 type  3   force =    -0.00000035    0.00000000   -0.00000069
     atom   19 type  3   force =     0.00000419    0.00000000   -0.00001100
     atom   20 type  3   force =     0.00000419    0.00000000    0.00001100

     Total force =     0.000104     Total SCF correction =     0.000211
     SCF correction compared to forces is large: reduce conv_thr to get better values


     Computing stress (Cartesian axis) and pressure


     negative rho (up, down):  6.557E-02 0.000E+00
          total   stress  (Ry/bohr**3)                   (kbar)     P=       -1.92
  -0.00000005   0.00000000   0.00000000           -0.01        0.00        0.00
   0.00000000  -0.00000020   0.00000000            0.00       -0.03        0.00
   0.00000000   0.00000000  -0.00003885            0.00        0.00       -5.71


     Writing output data file /work/eamouj78/ta2ni3te5/ta2ni3te5.save/

     init_run     :      5.72s CPU      8.79s WALL (       1 calls)
     electrons    :     40.24s CPU     65.41s WALL (       1 calls)
     forces       :      3.17s CPU      3.36s WALL (       1 calls)
     stress       :      6.69s CPU      8.82s WALL (       1 calls)

     Called by init_run:
     wfcinit      :      0.68s CPU      0.85s WALL (       1 calls)
     potinit      :      1.69s CPU      3.62s WALL (       1 calls)
     hinit0       :      2.77s CPU      3.43s WALL (       1 calls)

     Called by electrons:
     c_bands      :     29.77s CPU     43.63s WALL (      21 calls)
     sum_band     :      6.37s CPU     13.15s WALL (      21 calls)
     v_of_rho     :      1.17s CPU      2.17s WALL (      22 calls)
     newd         :      0.82s CPU      1.39s WALL (      22 calls)
     PAW_pot      :      1.75s CPU      3.01s WALL (      22 calls)
     mix_rho      :      0.22s CPU      0.31s WALL (      21 calls)

     Called by c_bands:
     init_us_2    :      0.28s CPU      0.29s WALL (      90 calls)
     cegterg      :     28.80s CPU     38.82s WALL (      42 calls)

     Called by *egterg:
     cdiaghg      :      1.03s CPU      6.40s WALL (     169 calls)
     h_psi        :     21.10s CPU     23.98s WALL (     171 calls)
     s_psi        :      1.22s CPU      1.24s WALL (     171 calls)
     g_psi        :      0.10s CPU      0.10s WALL (     127 calls)

     Called by h_psi:
     h_psi:calbec :      1.27s CPU      1.56s WALL (     171 calls)
     vloc_psi     :     18.50s CPU     21.06s WALL (     171 calls)
     add_vuspsi   :      1.19s CPU      1.22s WALL (     171 calls)

     General routines
     calbec       :      1.87s CPU      2.28s WALL (     223 calls)
     fft          :      0.70s CPU      1.72s WALL (     309 calls)
     ffts         :      0.25s CPU      2.77s WALL (      43 calls)
     fftw         :     21.00s CPU     23.92s WALL (   32234 calls)
     interpolate  :      0.10s CPU      0.26s WALL (      22 calls)

     Parallel routines

     PWSCF        :     56.70s CPU   1m32.38s WALL


   This run was terminated on:  13:58:16   7Aug2024            

=------------------------------------------------------------------------------=
   JOB DONE.
=------------------------------------------------------------------------------=
