
     Program PWSCF v.7.1 starts on 30Jul2024 at 22: 0:16 

     This program is part of the open-source Quantum ESPRESSO suite
     for quantum simulation of materials; please cite
         "P. Giannozzi et al., J. Phys.:Condens. Matter 21 395502 (2009);
         "P. Giannozzi et al., J. Phys.:Condens. Matter 29 465901 (2017);
         "P. Giannozzi et al., J. Chem. Phys. 152 154105 (2020);
          URL http://www.quantum-espresso.org", 
     in publications or presentations arising from this work. More details at
     http://www.quantum-espresso.org/quote

     Parallel version (MPI & OpenMP), running on      72 processor cores
     Number of MPI processes:                24
     Threads/MPI process:                     3

     MPI processes distributed on     3 nodes
     29760 MiB available memory on the printing compute node when the environment starts
 
     Waiting for input...
     Reading input from standard input
Warning: card &CELL ignored
Warning: card CELL_DYNAMICS='BFGS' ignored
Warning: card PRESS=0.0 ignored
Warning: card CELL_DOFREE='2DXY' ignored
Warning: card / ignored

     Current dimensions of program PWSCF are:
     Max number of different atomic species (ntypx) = 10
     Max number of k-points (npk) =  40000
     Max angular momentum in pseudopotentials (lmaxx) =  4
     Message from routine read_pp_mesh:
     mismatch in mesh size, discarding the one in header
     Message from routine read_pp_mesh:
     mismatch in mesh size, discarding the one in header
     Message from routine read_pp_mesh:
     mismatch in mesh size, discarding the one in header
 
     K-points division:     npool     =       8
     R & G space division:  proc/nbgrp/npool/nimage =       3
     Subspace diagonalization in iterative solution of the eigenvalue problem:
     a serial algorithm will be used

 
     Parallelization info
     --------------------
     sticks:   dense  smooth     PW     G-vecs:    dense   smooth      PW
     Min        2930    1465    407               644136   227839   33505
     Max        2931    1465    408               644139   227841   33506
     Sum        8791    4395   1223              1932411   683519  100517
 
     Using Slab Decomposition
 


     bravais-lattice index     =            0
     lattice parameter (alat)  =      30.7345  a.u.
     unit-cell volume          =   10883.7920 (a.u.)^3
     number of atoms/cell      =           20
     number of atomic types    =            3
     number of electrons       =       220.00
     number of Kohn-Sham states=          132
     kinetic-energy cutoff     =      60.0000  Ry
     charge density cutoff     =     480.0000  Ry
     scf convergence threshold =      1.0E-08
     mixing beta               =       0.2000
     number of iterations used =            8  plain     mixing
     energy convergence thresh.=      1.0E-04
     force convergence thresh. =      1.0E-03
     Exchange-correlation= SLA PW PBX PBC
                           (   1   4   3   4   0   0   0)
     nstep                     =         2000


     celldm(1)=  30.734506  celldm(2)=   0.000000  celldm(3)=   0.000000
     celldm(4)=   0.000000  celldm(5)=   0.000000  celldm(6)=   0.000000

     crystal axes: (cart. coord. in units of alat)
               a(1) = (   1.000000   0.000000   0.000000 )  
               a(2) = (   0.000000   0.243540   0.000000 )  
               a(3) = (   0.000000   0.000000   1.539326 )  

     reciprocal axes: (cart. coord. in units 2 pi/alat)
               b(1) = (  1.000000  0.000000  0.000000 )  
               b(2) = (  0.000000  4.106096  0.000000 )  
               b(3) = (  0.000000  0.000000  0.649635 )  


     PseudoPot. # 1 for Ta read from file:
     /ddn/data/physics/eamoujaes/PSEUDO-CREATED/Ta.upf
     MD5 check sum: d865b2c2c09566b116f2b8decb2c153d
     Pseudo is Projector augmented-wave + core cor, Zval = 13.0
     Generated using ATOMPAW code
     Shape of augmentation charge: SINC**2
     Using radial grid of 2342 points,  6 beta functions with: 
                l(1) =   0
                l(2) =   0
                l(3) =   1
                l(4) =   1
                l(5) =   2
                l(6) =   2
     Q(r) pseudized with 0 coefficients 


     PseudoPot. # 2 for Ni read from file:
     /ddn/data/physics/eamoujaes/PSEUDO-CREATED/Ni.upf
     MD5 check sum: 85a2a5d9d38f4289a1cc30d5adb66a03
     Pseudo is Projector augmented-wave + core cor, Zval = 18.0
     Generated using ATOMPAW code
     Shape of augmentation charge: SINC**2
     Using radial grid of 2342 points,  6 beta functions with: 
                l(1) =   0
                l(2) =   0
                l(3) =   1
                l(4) =   1
                l(5) =   2
                l(6) =   2
     Q(r) pseudized with 0 coefficients 


     PseudoPot. # 3 for Te read from file:
     /ddn/data/physics/eamoujaes/PSEUDO-CREATED/Te.upf
     MD5 check sum: 8d958f193a7511a138982c2e72838810
     Pseudo is Projector augmented-wave + core cor, Zval =  6.0
     Generated using ATOMPAW code
     Shape of augmentation charge: SINC**2
     Using radial grid of 2342 points,  4 beta functions with: 
                l(1) =   0
                l(2) =   0
                l(3) =   1
                l(4) =   1
     Q(r) pseudized with 0 coefficients 


     atomic species   valence    mass     pseudopotential
        Ta            13.00   180.94790     Ta( 1.00)
        Ni            18.00    58.69340     Ni( 1.00)
        Te             6.00   127.60000     Te( 1.00)

     No symmetry found



   Cartesian axes

     site n.     atom                  positions (alat units)
         1           Ta  tau(   1) = (   0.9463749   0.0562545   0.7651156  )
         2           Ta  tau(   2) = (   0.4040550   0.1687635   0.7742251  )
         3           Ta  tau(   3) = (   0.1392742   0.0562545   0.7651049  )
         4           Ta  tau(   4) = (   0.6815945   0.1687635   0.7742349  )
         5           Ni  tau(   5) = (   0.7909744   0.0562545   0.7231732  )
         6           Ni  tau(   6) = (   0.2486535   0.1687635   0.8161672  )
         7           Ni  tau(   7) = (   0.2946672   0.0562545   0.7231568  )
         8           Ni  tau(   8) = (   0.8369872   0.1687635   0.8161830  )
         9           Ni  tau(   9) = (   0.5428152   0.0562545   0.7604652  )
        10           Ni  tau(  10) = (   0.0004966   0.1687635   0.7788742  )
        11           Te  tau(  11) = (   0.8738959   0.1687635   0.6477654  )
        12           Te  tau(  12) = (   0.3315741   0.0562545   0.8915748  )
        13           Te  tau(  13) = (   0.6514654   0.0562545   0.6467864  )
        14           Te  tau(  14) = (   0.1091460   0.1687635   0.8925538  )
        15           Te  tau(  15) = (   0.2117369   0.1687635   0.6477517  )
        16           Te  tau(  16) = (   0.7540574   0.0562545   0.8915883  )
        17           Te  tau(  17) = (   0.4341871   0.0562545   0.6467764  )
        18           Te  tau(  18) = (   0.9765065   0.1687635   0.8925644  )
        19           Te  tau(  19) = (   0.0005103   0.0562545   0.6663563  )
        20           Te  tau(  20) = (   0.5428282   0.1687635   0.8729819  )

     number of k points=    12  Gaussian smearing, width (Ry)=  0.0020
                       cart. coord. in units 2pi/alat
        k(    1) = (   0.0000000   0.0000000   0.0000000), wk =   0.1000000
        k(    2) = (   0.0000000   0.4106096   0.0000000), wk =   0.2000000
        k(    3) = (   0.0000000   0.8212192   0.0000000), wk =   0.2000000
        k(    4) = (   0.0000000   1.2318288   0.0000000), wk =   0.2000000
        k(    5) = (   0.0000000   1.6424384   0.0000000), wk =   0.2000000
        k(    6) = (   0.0000000  -2.0530480   0.0000000), wk =   0.1000000
        k(    7) = (  -0.5000000   0.0000000   0.0000000), wk =   0.1000000
        k(    8) = (  -0.5000000   0.4106096   0.0000000), wk =   0.2000000
        k(    9) = (  -0.5000000   0.8212192   0.0000000), wk =   0.2000000
        k(   10) = (  -0.5000000   1.2318288   0.0000000), wk =   0.2000000
        k(   11) = (  -0.5000000   1.6424384   0.0000000), wk =   0.2000000
        k(   12) = (  -0.5000000  -2.0530480   0.0000000), wk =   0.1000000

     Dense  grid:  1932411 G-vectors     FFT dimensions: ( 216,  54, 360)

     Smooth grid:   683519 G-vectors     FFT dimensions: ( 160,  40, 240)

     Estimated max dynamical RAM per process >       1.01 GB

     Estimated total dynamical RAM >      21.11 GB

     Initial potential from superposition of free atoms

     starting charge     219.9927, renormalised to     220.0000

     negative rho (up, down):  4.669E-02 0.000E+00
     Starting wfcs are  260 randomized atomic wfcs
     Checking if some PAW data can be deallocated... 

     total cpu time spent up to now is       66.1 secs

     Self-consistent Calculation

     iteration #  1     ecut=    60.00 Ry     beta= 0.20
     Davidson diagonalization with overlap
     ethr =  1.00E-02,  avg # of iterations =  2.7

     negative rho (up, down):  4.812E-02 0.000E+00

     total cpu time spent up to now is       84.5 secs

     total energy              =   -9105.05438129 Ry
     estimated scf accuracy    <      10.69138893 Ry

     iteration #  2     ecut=    60.00 Ry     beta= 0.20
     Davidson diagonalization with overlap
     ethr =  4.86E-03,  avg # of iterations =  2.1

     negative rho (up, down):  4.892E-02 0.000E+00

     total cpu time spent up to now is      101.7 secs

     total energy              =   -9101.89653046 Ry
     estimated scf accuracy    <      91.96884388 Ry

     iteration #  3     ecut=    60.00 Ry     beta= 0.20
     Davidson diagonalization with overlap
     ethr =  4.86E-03,  avg # of iterations =  2.0

     negative rho (up, down):  4.985E-02 0.000E+00

     total cpu time spent up to now is      117.9 secs

     total energy              =   -9104.14398623 Ry
     estimated scf accuracy    <      98.40432695 Ry

     iteration #  4     ecut=    60.00 Ry     beta= 0.20
     Davidson diagonalization with overlap
     ethr =  4.86E-03,  avg # of iterations =  1.0

     negative rho (up, down):  5.163E-02 0.000E+00

     total cpu time spent up to now is      132.9 secs

     total energy              =   -9107.86883962 Ry
     estimated scf accuracy    <       3.20642816 Ry

     iteration #  5     ecut=    60.00 Ry     beta= 0.20
     Davidson diagonalization with overlap
     ethr =  1.46E-03,  avg # of iterations =  1.0

     negative rho (up, down):  5.320E-02 0.000E+00

     total cpu time spent up to now is      147.8 secs

     total energy              =   -9107.88814542 Ry
     estimated scf accuracy    <       1.92392538 Ry

     iteration #  6     ecut=    60.00 Ry     beta= 0.20
     Davidson diagonalization with overlap
     ethr =  8.75E-04,  avg # of iterations =  1.0

     negative rho (up, down):  5.554E-02 0.000E+00

     total cpu time spent up to now is      162.8 secs

     total energy              =   -9107.78948092 Ry
     estimated scf accuracy    <       1.37694329 Ry

     iteration #  7     ecut=    60.00 Ry     beta= 0.20
     Davidson diagonalization with overlap
     ethr =  6.26E-04,  avg # of iterations =  1.0

     negative rho (up, down):  5.947E-02 0.000E+00

     total cpu time spent up to now is      178.6 secs

     total energy              =   -9107.70256821 Ry
     estimated scf accuracy    <       0.67422898 Ry

     iteration #  8     ecut=    60.00 Ry     beta= 0.20
     Davidson diagonalization with overlap
     ethr =  3.06E-04,  avg # of iterations =  1.2

     negative rho (up, down):  6.225E-02 0.000E+00

     total cpu time spent up to now is      195.4 secs

     total energy              =   -9107.74686351 Ry
     estimated scf accuracy    <       0.34887969 Ry

     iteration #  9     ecut=    60.00 Ry     beta= 0.20
     Davidson diagonalization with overlap
     ethr =  1.59E-04,  avg # of iterations =  1.8

     negative rho (up, down):  6.433E-02 0.000E+00

     total cpu time spent up to now is      211.3 secs

     total energy              =   -9107.74046669 Ry
     estimated scf accuracy    <       0.27991937 Ry

     iteration # 10     ecut=    60.00 Ry     beta= 0.20
     Davidson diagonalization with overlap
     ethr =  1.27E-04,  avg # of iterations =  1.1

     negative rho (up, down):  6.507E-02 0.000E+00

     total cpu time spent up to now is      226.5 secs

     total energy              =   -9107.74191905 Ry
     estimated scf accuracy    <       0.06646348 Ry

     iteration # 11     ecut=    60.00 Ry     beta= 0.20
     Davidson diagonalization with overlap
     ethr =  3.02E-05,  avg # of iterations = 10.0

     negative rho (up, down):  6.549E-02 0.000E+00

     total cpu time spent up to now is      250.0 secs

     total energy              =   -9107.74357459 Ry
     estimated scf accuracy    <       0.01270458 Ry

     iteration # 12     ecut=    60.00 Ry     beta= 0.20
     Davidson diagonalization with overlap
     ethr =  5.77E-06,  avg # of iterations = 12.5

     negative rho (up, down):  6.649E-02 0.000E+00

     total cpu time spent up to now is      271.6 secs

     total energy              =   -9107.74480533 Ry
     estimated scf accuracy    <       0.01391356 Ry

     iteration # 13     ecut=    60.00 Ry     beta= 0.20
     Davidson diagonalization with overlap
     ethr =  5.77E-06,  avg # of iterations =  1.0

     negative rho (up, down):  6.753E-02 0.000E+00

     total cpu time spent up to now is      286.4 secs

     total energy              =   -9107.74500050 Ry
     estimated scf accuracy    <       0.00242098 Ry

     iteration # 14     ecut=    60.00 Ry     beta= 0.20
     Davidson diagonalization with overlap
     ethr =  1.10E-06,  avg # of iterations =  3.1

     negative rho (up, down):  6.762E-02 0.000E+00

     total cpu time spent up to now is      304.0 secs

     total energy              =   -9107.74517879 Ry
     estimated scf accuracy    <       0.00229419 Ry

     iteration # 15     ecut=    60.00 Ry     beta= 0.20
     Davidson diagonalization with overlap
     ethr =  1.04E-06,  avg # of iterations =  1.0

     negative rho (up, down):  6.775E-02 0.000E+00

     total cpu time spent up to now is      318.8 secs

     total energy              =   -9107.74527873 Ry
     estimated scf accuracy    <       0.00030166 Ry

     iteration # 16     ecut=    60.00 Ry     beta= 0.20
     Davidson diagonalization with overlap
     ethr =  1.37E-07,  avg # of iterations =  2.0

     negative rho (up, down):  6.800E-02 0.000E+00

     total cpu time spent up to now is      335.1 secs

     total energy              =   -9107.74531416 Ry
     estimated scf accuracy    <       0.00014817 Ry

     iteration # 17     ecut=    60.00 Ry     beta= 0.20
     Davidson diagonalization with overlap
     ethr =  6.73E-08,  avg # of iterations =  1.0

     negative rho (up, down):  6.803E-02 0.000E+00

     total cpu time spent up to now is      350.0 secs

     total energy              =   -9107.74531820 Ry
     estimated scf accuracy    <       0.00008077 Ry

     iteration # 18     ecut=    60.00 Ry     beta= 0.20
     Davidson diagonalization with overlap
     ethr =  3.67E-08,  avg # of iterations =  1.0

     negative rho (up, down):  6.806E-02 0.000E+00

     total cpu time spent up to now is      374.2 secs

     total energy              =   -9107.74532270 Ry
     estimated scf accuracy    <       0.00002538 Ry

     iteration # 19     ecut=    60.00 Ry     beta= 0.20
     Davidson diagonalization with overlap
     ethr =  1.15E-08,  avg # of iterations =  2.0

     negative rho (up, down):  6.809E-02 0.000E+00

     total cpu time spent up to now is      398.3 secs

     total energy              =   -9107.74532454 Ry
     estimated scf accuracy    <       0.00001800 Ry

     iteration # 20     ecut=    60.00 Ry     beta= 0.20
     Davidson diagonalization with overlap
     ethr =  8.18E-09,  avg # of iterations =  1.8

     negative rho (up, down):  6.805E-02 0.000E+00

     total cpu time spent up to now is      414.1 secs

     total energy              =   -9107.74532551 Ry
     estimated scf accuracy    <       0.00001364 Ry

     iteration # 21     ecut=    60.00 Ry     beta= 0.20
     Davidson diagonalization with overlap
     ethr =  6.20E-09,  avg # of iterations =  1.0

     negative rho (up, down):  6.802E-02 0.000E+00

     total cpu time spent up to now is      428.9 secs

     total energy              =   -9107.74532597 Ry
     estimated scf accuracy    <       0.00000318 Ry

     iteration # 22     ecut=    60.00 Ry     beta= 0.20
     Davidson diagonalization with overlap
     ethr =  1.44E-09,  avg # of iterations =  2.0

     negative rho (up, down):  6.796E-02 0.000E+00

     total cpu time spent up to now is      445.3 secs

     total energy              =   -9107.74532598 Ry
     estimated scf accuracy    <       0.00000214 Ry

     iteration # 23     ecut=    60.00 Ry     beta= 0.20
     Davidson diagonalization with overlap
     ethr =  9.74E-10,  avg # of iterations =  1.3

     negative rho (up, down):  6.793E-02 0.000E+00

     total cpu time spent up to now is      467.1 secs

     total energy              =   -9107.74532606 Ry
     estimated scf accuracy    <       0.00000092 Ry

     iteration # 24     ecut=    60.00 Ry     beta= 0.20
     Davidson diagonalization with overlap
     ethr =  4.17E-10,  avg # of iterations =  2.0

     negative rho (up, down):  6.792E-02 0.000E+00

     total cpu time spent up to now is      483.2 secs

     total energy              =   -9107.74532619 Ry
     estimated scf accuracy    <       0.00000054 Ry

     iteration # 25     ecut=    60.00 Ry     beta= 0.20
     Davidson diagonalization with overlap
     ethr =  2.44E-10,  avg # of iterations =  1.1

     negative rho (up, down):  6.789E-02 0.000E+00

     total cpu time spent up to now is      507.2 secs

     total energy              =   -9107.74532622 Ry
     estimated scf accuracy    <       0.00000026 Ry

     iteration # 26     ecut=    60.00 Ry     beta= 0.20
     Davidson diagonalization with overlap
     ethr =  1.20E-10,  avg # of iterations =  1.3

     negative rho (up, down):  6.787E-02 0.000E+00

     total cpu time spent up to now is      523.1 secs

     total energy              =   -9107.74532624 Ry
     estimated scf accuracy    <       0.00000005 Ry

     iteration # 27     ecut=    60.00 Ry     beta= 0.20
     Davidson diagonalization with overlap
     ethr =  2.25E-11,  avg # of iterations =  4.0

     negative rho (up, down):  6.786E-02 0.000E+00

     total cpu time spent up to now is      540.6 secs

     total energy              =   -9107.74532625 Ry
     estimated scf accuracy    <       0.00000007 Ry

     iteration # 28     ecut=    60.00 Ry     beta= 0.20
     Davidson diagonalization with overlap
     ethr =  2.25E-11,  avg # of iterations =  1.1

     negative rho (up, down):  6.784E-02 0.000E+00

     total cpu time spent up to now is      555.8 secs

     total energy              =   -9107.74532625 Ry
     estimated scf accuracy    <       0.00000002 Ry

     iteration # 29     ecut=    60.00 Ry     beta= 0.20
     Davidson diagonalization with overlap
     ethr =  7.96E-12,  avg # of iterations =  1.9

     negative rho (up, down):  6.782E-02 0.000E+00

     total cpu time spent up to now is      571.6 secs

     End of self-consistent calculation

          k = 0.0000 0.0000 0.0000 ( 85337 PWs)   bands (ev):

  -104.6620-103.0593-103.0368-103.0294-102.9072-102.7144 -68.8595 -68.8400
   -68.6205 -68.2212 -65.3149 -65.1922 -64.9518 -63.6584 -63.6115 -63.5716
   -63.5584 -63.4717 -63.4711 -63.4242 -63.3439 -63.3132 -63.2714 -63.2605
   -63.2115 -63.1818 -63.1677 -62.9970 -36.1433 -35.2998 -35.2796 -35.2669
   -35.2488 -35.2386 -35.2219 -35.2049 -35.0830 -34.9802 -34.9496 -34.5747
   -16.4982 -14.1859 -12.3003 -12.0761 -11.6728 -11.5972 -11.3954 -11.3391
   -11.1385 -10.9832  -7.5764  -6.9544  -6.4958  -6.2386  -5.6199  -5.4984
    -5.2365  -4.9414  -4.9202  -4.7471  -4.4808  -4.4225  -4.2837  -3.9507
    -3.8681  -3.7048  -3.5867  -3.5370  -3.5081  -3.4330  -3.2834  -3.2466
    -3.1098  -3.0866  -3.0596  -2.9618  -2.7648  -2.7310  -2.5720  -2.5380
    -2.3447  -2.2754  -2.2167  -2.1242  -2.1075  -1.9529  -1.8705  -1.7647
    -1.7258  -1.6481  -1.5252  -1.4805  -1.4333  -1.4109  -1.3437  -1.2140
    -1.1869  -1.0950  -1.0520  -1.0201  -0.9425  -0.8558  -0.6831  -0.6339
    -0.5441  -0.4459  -0.2956  -0.2426  -0.0185   0.0272   0.0447   0.4129
     0.4537   0.6731   0.9150   1.0621   1.1340   1.1933   1.4240   1.5056
     1.6708   1.7983   1.9769   2.1354   2.2769   2.5992   2.6781   2.8410
     2.9820   3.0032   3.1135   3.4723

          k = 0.0000 0.4106 0.0000 ( 85407 PWs)   bands (ev):

  -104.6620-103.0593-103.0367-103.0296-102.9072-102.7144 -68.8595 -68.8400
   -68.6205 -68.2234 -65.3137 -65.1905 -64.9519 -63.6586 -63.6116 -63.5717
   -63.5586 -63.4711 -63.4709 -63.4252 -63.3444 -63.3128 -63.2712 -63.2607
   -63.2116 -63.1819 -63.1678 -62.9971 -36.1431 -35.3012 -35.2815 -35.2676
   -35.2490 -35.2386 -35.2217 -35.2076 -35.0828 -34.9810 -34.9542 -34.5728
   -16.4705 -14.1117 -12.2349 -12.0148 -11.6314 -11.5714 -11.3675 -11.3054
   -11.1409 -10.9715  -7.5171  -7.0377  -6.4820  -6.1903  -5.5971  -5.4778
    -5.2551  -5.1232  -4.8882  -4.8470  -4.5832  -4.4249  -4.3029  -4.0773
    -3.7902  -3.7211  -3.6329  -3.5900  -3.5290  -3.4546  -3.3742  -3.2905
    -3.2046  -3.1126  -3.0343  -2.9503  -2.8366  -2.7178  -2.6174  -2.5155
    -2.4345  -2.3717  -2.2823  -2.2415  -2.0855  -2.0188  -1.9263  -1.7912
    -1.7525  -1.6452  -1.6120  -1.5089  -1.4610  -1.4232  -1.3336  -1.2713
    -1.2169  -1.0997  -1.0821  -0.9981  -0.8943  -0.8661  -0.7619  -0.6487
    -0.5130  -0.4453  -0.3598  -0.2011  -0.1104   0.0741   0.1046   0.4381
     0.4669   0.7357   0.8793   0.9997   1.1354   1.2433   1.3836   1.4264
     1.6271   1.7717   1.9175   2.0490   2.2423   2.4215   2.6208   2.7279
     2.8350   3.1311   3.3250   3.6207

          k = 0.0000 0.8212 0.0000 ( 85393 PWs)   bands (ev):

  -104.6620-103.0593-103.0364-103.0299-102.9073-102.7144 -68.8594 -68.8399
   -68.6204 -68.2292 -65.3104 -65.1858 -64.9522 -63.6587 -63.6117 -63.5718
   -63.5587 -63.4706 -63.4694 -63.4277 -63.3454 -63.3117 -63.2705 -63.2609
   -63.2117 -63.1819 -63.1677 -62.9970 -36.1427 -35.3054 -35.2870 -35.2691
   -35.2494 -35.2384 -35.2213 -35.2148 -35.0825 -34.9857 -34.9633 -34.5680
   -16.3970 -13.8933 -12.0505 -11.8451 -11.5315 -11.5018 -11.3165 -11.2213
   -11.1374 -10.9404  -7.3949  -7.1908  -6.5101  -6.2090  -5.9453  -5.5134
    -5.2833  -5.0301  -4.9470  -4.7751  -4.6938  -4.4009  -4.2772  -4.1149
    -3.9873  -3.8824  -3.7896  -3.7745  -3.6669  -3.5653  -3.5116  -3.4187
    -3.3533  -3.2771  -3.1316  -3.0695  -2.8933  -2.8217  -2.7460  -2.6091
    -2.5327  -2.4499  -2.3313  -2.2460  -2.2200  -2.0464  -1.9571  -1.9048
    -1.8168  -1.7448  -1.6872  -1.6172  -1.5211  -1.4335  -1.3913  -1.3013
    -1.2467  -1.1711  -1.1317  -0.9893  -0.9239  -0.8821  -0.7599  -0.7292
    -0.6502  -0.4446  -0.3838  -0.2937  -0.1771   0.0783   0.1312   0.6220
     0.6476   0.7591   0.9111   0.9882   1.1675   1.2268   1.3708   1.4566
     1.5655   1.6970   1.9225   2.0650   2.0926   2.2946   2.4681   2.5530
     3.0440   3.3996   3.6417   3.7032

          k = 0.0000 1.2318 0.0000 ( 85446 PWs)   bands (ev):

  -104.6620-103.0593-103.0359-103.0304-102.9073-102.7144 -68.8592 -68.8398
   -68.6203 -68.2363 -65.3067 -65.1798 -64.9526 -63.6588 -63.6117 -63.5718
   -63.5589 -63.4703 -63.4673 -63.4312 -63.3466 -63.3103 -63.2698 -63.2612
   -63.2117 -63.1820 -63.1677 -62.9972 -36.1422 -35.3114 -35.2943 -35.2702
   -35.2495 -35.2379 -35.2237 -35.2206 -35.0820 -34.9984 -34.9676 -34.5621
   -16.3042 -13.5472 -11.7858 -11.6563 -11.5007 -11.3904 -11.2962 -11.1313
   -11.0509 -10.9028  -7.4680  -7.1582  -6.8721  -6.4535  -5.9617  -5.4942
    -5.2445  -5.2078  -4.9158  -4.8379  -4.7364  -4.4694  -4.3593  -4.2735
    -4.2025  -4.0752  -3.9664  -3.8589  -3.7827  -3.6800  -3.5821  -3.4819
    -3.3830  -3.3711  -3.2201  -3.0959  -3.0045  -2.9126  -2.8471  -2.6927
    -2.6038  -2.5266  -2.3467  -2.2769  -2.2138  -2.1897  -2.0096  -1.9741
    -1.8877  -1.8324  -1.7910  -1.7380  -1.5767  -1.5030  -1.3675  -1.3106
    -1.2973  -1.2076  -1.1774  -1.1569  -1.0372  -0.8964  -0.8814  -0.7905
    -0.7398  -0.6299  -0.4864  -0.4186  -0.3065   0.0382   0.5020   0.5832
     0.7361   0.8632   0.9786   1.1093   1.2059   1.2970   1.4056   1.5719
     1.5982   1.7151   1.8616   2.2685   2.3467   2.3714   2.4805   2.5939
     2.9776   3.2270   3.3431   3.4426

          k = 0.0000 1.6424 0.0000 ( 85506 PWs)   bands (ev):

  -104.6620-103.0593-103.0354-103.0308-102.9073-102.7144 -68.8591 -68.8396
   -68.6201 -68.2421 -65.3040 -65.1748 -64.9530 -63.6588 -63.6118 -63.5719
   -63.5591 -63.4701 -63.4654 -63.4344 -63.3476 -63.3092 -63.2694 -63.2615
   -63.2117 -63.1820 -63.1676 -62.9974 -36.1417 -35.3169 -35.3005 -35.2706
   -35.2493 -35.2375 -35.2309 -35.2200 -35.0815 -35.0114 -34.9682 -34.5575
   -16.2273 -13.1206 -11.8859 -11.5196 -11.3350 -11.2836 -11.2089 -11.0848
   -10.9514 -10.8759  -7.5812  -7.2425  -7.0629  -6.7015  -5.7951  -5.6182
    -5.3582  -5.3350  -5.1488  -5.0190  -4.8817  -4.7169  -4.4081  -4.2915
    -4.2359  -4.0927  -3.9712  -3.8096  -3.6767  -3.6571  -3.6094  -3.5101
    -3.4217  -3.3132  -3.2143  -3.1281  -3.0689  -3.0280  -2.8955  -2.7025
    -2.6229  -2.5315  -2.4350  -2.2990  -2.2276  -2.1831  -2.0607  -2.0202
    -1.9298  -1.8809  -1.8268  -1.7750  -1.6412  -1.5919  -1.4796  -1.3948
    -1.3309  -1.3032  -1.1744  -1.1554  -1.0884  -0.9862  -0.9494  -0.8987
    -0.8203  -0.7307  -0.6240  -0.5284  -0.3423  -0.1347   0.3909   0.6680
     0.7394   0.9977   1.0554   1.1924   1.2176   1.3079   1.4829   1.5475
     1.7595   1.8650   2.0315   2.2291   2.4178   2.5841   2.7127   2.8407
     2.9083   3.0459   3.1052   3.4063

          k = 0.0000-2.0530 0.0000 ( 85490 PWs)   bands (ev):

  -104.6620-103.0593-103.0352-103.0310-102.9073-102.7144 -68.8591 -68.8396
   -68.6201 -68.2443 -65.3029 -65.1727 -64.9531 -63.6589 -63.6118 -63.5719
   -63.5591 -63.4700 -63.4644 -63.4356 -63.3479 -63.3087 -63.2691 -63.2615
   -63.2117 -63.1820 -63.1676 -62.9974 -36.1416 -35.3190 -35.3029 -35.2707
   -35.2492 -35.2374 -35.2336 -35.2197 -35.0812 -35.0167 -34.9681 -34.5558
   -16.1975 -12.8321 -12.1410 -11.4002 -11.2465 -11.1917 -11.1706 -11.1057
   -10.9155 -10.8692  -7.6162  -7.3220  -7.1212  -6.7767  -5.7416  -5.6299
    -5.5365  -5.4069  -5.2476  -5.0646  -4.9855  -4.7084  -4.4403  -4.3033
    -4.2913  -3.9670  -3.9343  -3.7919  -3.7424  -3.6652  -3.5875  -3.4797
    -3.3901  -3.2866  -3.2025  -3.1907  -3.1162  -3.0050  -2.8482  -2.7146
    -2.6384  -2.5454  -2.4385  -2.2761  -2.2235  -2.1924  -2.0582  -2.0120
    -1.9582  -1.8957  -1.8720  -1.7518  -1.6781  -1.6049  -1.5806  -1.4422
    -1.3570  -1.3140  -1.1963  -1.1833  -1.0804  -1.0138  -0.9735  -0.9290
    -0.8455  -0.7892  -0.7109  -0.5286  -0.3069  -0.2722   0.3501   0.6088
     0.7514   0.8889   1.0893   1.1677   1.2470   1.4112   1.5077   1.6951
     1.7579   1.7945   2.1699   2.2147   2.4584   2.6497   2.7355   2.9157
     3.0308   3.1328   3.2333   3.3929

          k =-0.5000 0.0000 0.0000 ( 85532 PWs)   bands (ev):

  -104.6620-103.0593-103.0368-103.0294-102.9072-102.7144 -68.8595 -68.8400
   -68.6205 -68.2212 -65.3150 -65.1923 -64.9520 -63.6588 -63.6118 -63.5719
   -63.5587 -63.4717 -63.4711 -63.4242 -63.3440 -63.3133 -63.2714 -63.2607
   -63.2118 -63.1820 -63.1678 -62.9971 -36.1433 -35.2998 -35.2796 -35.2669
   -35.2488 -35.2387 -35.2219 -35.2049 -35.0830 -34.9802 -34.9496 -34.5747
   -16.4982 -14.1859 -12.3364 -11.9694 -11.7298 -11.6467 -11.3771 -11.3450
   -11.1355 -10.9606  -7.5795  -6.9544  -6.5040  -6.2464  -5.6386  -5.4974
    -5.2178  -4.9428  -4.7965  -4.6774  -4.5933  -4.4916  -4.1917  -4.0931
    -3.9269  -3.6772  -3.6420  -3.5278  -3.4154  -3.3917  -3.3121  -3.1581
    -3.1152  -3.1018  -3.0408  -2.9371  -2.8157  -2.7217  -2.6257  -2.5162
    -2.3567  -2.2881  -2.1822  -2.1278  -2.0984  -1.9623  -1.8261  -1.7872
    -1.7252  -1.6327  -1.6102  -1.5259  -1.4123  -1.3742  -1.2812  -1.2568
    -1.2190  -1.1310  -1.0548  -1.0071  -0.9693  -0.9000  -0.6577  -0.6056
    -0.5202  -0.3692  -0.2848  -0.2691  -0.0427  -0.0071   0.0816   0.3713
     0.4344   0.7405   1.0067   1.0569   1.1464   1.1605   1.3963   1.4529
     1.7227   1.7863   1.9366   2.2221   2.3690   2.6294   2.7078   2.7768
     2.8682   2.9613   3.1513   3.3306

          k =-0.5000 0.4106 0.0000 ( 85420 PWs)   bands (ev):

  -104.6620-103.0593-103.0367-103.0296-102.9072-102.7144 -68.8595 -68.8400
   -68.6205 -68.2234 -65.3136 -65.1905 -64.9520 -63.6587 -63.6117 -63.5717
   -63.5587 -63.4710 -63.4709 -63.4251 -63.3443 -63.3128 -63.2711 -63.2607
   -63.2117 -63.1819 -63.1678 -62.9970 -36.1431 -35.3012 -35.2815 -35.2676
   -35.2490 -35.2386 -35.2217 -35.2076 -35.0828 -34.9810 -34.9542 -34.5728
   -16.4705 -14.1116 -12.2705 -11.9095 -11.6828 -11.6163 -11.3505 -11.3299
   -11.1235 -10.9528  -7.5195  -7.0371  -6.4884  -6.1967  -5.6138  -5.4560
    -5.3001  -5.0870  -4.8801  -4.6812  -4.6298  -4.4953  -4.3488  -4.0555
    -3.9195  -3.7244  -3.6824  -3.5479  -3.5350  -3.4221  -3.3099  -3.2320
    -3.1340  -3.0712  -3.0154  -2.9691  -2.8643  -2.7699  -2.6524  -2.5061
    -2.4233  -2.3773  -2.3080  -2.2312  -2.1013  -2.0215  -1.8672  -1.8192
    -1.7575  -1.6781  -1.6368  -1.5496  -1.4984  -1.3884  -1.2942  -1.2420
    -1.2071  -1.1623  -1.0739  -1.0065  -0.9467  -0.8724  -0.7230  -0.5864
    -0.5353  -0.4358  -0.3506  -0.2656  -0.1554   0.1297   0.2273   0.3960
     0.5208   0.6376   0.8687   1.0553   1.1348   1.2889   1.4088   1.4811
     1.5732   1.6642   1.9399   2.1195   2.2808   2.4348   2.5717   2.7473
     2.8421   3.0818   3.2642   3.5519

          k =-0.5000 0.8212 0.0000 ( 85364 PWs)   bands (ev):

  -104.6620-103.0593-103.0364-103.0299-102.9073-102.7144 -68.8594 -68.8399
   -68.6204 -68.2292 -65.3103 -65.1858 -64.9522 -63.6586 -63.6117 -63.5717
   -63.5587 -63.4705 -63.4693 -63.4277 -63.3453 -63.3117 -63.2704 -63.2609
   -63.2116 -63.1819 -63.1677 -62.9970 -36.1427 -35.3054 -35.2870 -35.2691
   -35.2494 -35.2384 -35.2213 -35.2148 -35.0825 -34.9857 -34.9633 -34.5680
   -16.3970 -13.8933 -12.0845 -11.7436 -11.5720 -11.5244 -11.3432 -11.2575
   -11.0881 -10.9302  -7.3944  -7.1901  -6.5122  -6.2082  -5.9412  -5.5355
    -5.3010  -5.0130  -4.9408  -4.7984  -4.6191  -4.4307  -4.2834  -4.1132
    -4.0172  -3.9167  -3.8294  -3.7858  -3.6207  -3.5352  -3.5219  -3.4108
    -3.2743  -3.2093  -3.1344  -3.0735  -2.9112  -2.8155  -2.6708  -2.6302
    -2.5866  -2.4819  -2.3342  -2.2713  -2.2349  -2.0855  -1.9782  -1.8981
    -1.8090  -1.7614  -1.6779  -1.6042  -1.5202  -1.4436  -1.3943  -1.3077
    -1.2348  -1.1793  -1.1383  -1.0858  -0.8819  -0.8270  -0.7859  -0.6824
    -0.6331  -0.5441  -0.3275  -0.3093  -0.2188   0.1544   0.1923   0.5216
     0.7372   0.7662   0.8336   1.0120   1.2513   1.2962   1.3913   1.4102
     1.5655   1.6356   1.8966   1.9735   2.2027   2.3243   2.4121   2.6588
     2.9745   3.3957   3.6293   3.6934

          k =-0.5000 1.2318 0.0000 ( 85432 PWs)   bands (ev):

  -104.6620-103.0593-103.0359-103.0304-102.9073-102.7144 -68.8592 -68.8398
   -68.6203 -68.2363 -65.3067 -65.1798 -64.9526 -63.6588 -63.6117 -63.5718
   -63.5589 -63.4703 -63.4673 -63.4312 -63.3466 -63.3103 -63.2698 -63.2612
   -63.2117 -63.1819 -63.1676 -62.9972 -36.1422 -35.3114 -35.2943 -35.2702
   -35.2495 -35.2379 -35.2237 -35.2206 -35.0820 -34.9984 -34.9676 -34.5621
   -16.3042 -13.5472 -11.8220 -11.5716 -11.5095 -11.4004 -11.3322 -11.1584
   -11.0234 -10.8971  -7.4660  -7.1571  -6.8722  -6.4493  -5.9544  -5.5057
    -5.2954  -5.1665  -4.9937  -4.8361  -4.6235  -4.5484  -4.3397  -4.2278
    -4.1597  -4.1070  -4.0195  -3.9199  -3.7753  -3.6292  -3.5573  -3.4512
    -3.3942  -3.3162  -3.2370  -3.1265  -2.9771  -2.9158  -2.7825  -2.6621
    -2.6242  -2.5101  -2.3856  -2.3120  -2.2822  -2.1700  -2.0472  -1.9958
    -1.8773  -1.8317  -1.7835  -1.7366  -1.5994  -1.5005  -1.3815  -1.3274
    -1.2967  -1.2183  -1.1914  -1.1271  -0.9415  -0.9018  -0.8551  -0.8156
    -0.7867  -0.6239  -0.4982  -0.4532  -0.3270   0.0627   0.4744   0.5726
     0.7627   0.9266   1.0520   1.1231   1.2261   1.2782   1.3526   1.5454
     1.6975   1.8007   1.9186   2.0198   2.2384   2.4567   2.5067   2.6860
     2.9658   3.1475   3.3319   3.5607

          k =-0.5000 1.6424 0.0000 ( 85370 PWs)   bands (ev):

  -104.6620-103.0593-103.0354-103.0308-102.9073-102.7144 -68.8591 -68.8396
   -68.6201 -68.2421 -65.3039 -65.1746 -64.9528 -63.6587 -63.6116 -63.5718
   -63.5589 -63.4700 -63.4652 -63.4343 -63.3475 -63.3091 -63.2692 -63.2614
   -63.2116 -63.1819 -63.1675 -62.9973 -36.1417 -35.3169 -35.3005 -35.2706
   -35.2493 -35.2375 -35.2309 -35.2200 -35.0815 -35.0114 -34.9682 -34.5575
   -16.2273 -13.1206 -11.8869 -11.5233 -11.3246 -11.2800 -11.2089 -11.0967
   -10.9501 -10.8747  -7.5815  -7.2441  -7.0635  -6.7003  -5.7702  -5.5630
    -5.3860  -5.3574  -5.2156  -5.0094  -4.8929  -4.7051  -4.4067  -4.2933
    -4.2311  -4.1198  -3.9180  -3.8457  -3.7278  -3.6563  -3.5579  -3.4982
    -3.3866  -3.2995  -3.1681  -3.1046  -3.0842  -3.0400  -2.9876  -2.6496
    -2.5661  -2.4568  -2.4020  -2.3521  -2.3024  -2.1861  -2.0952  -2.0140
    -1.9476  -1.9018  -1.8535  -1.7614  -1.6893  -1.5935  -1.4667  -1.4181
    -1.3235  -1.2536  -1.1994  -1.1160  -1.0516  -1.0032  -0.9574  -0.8798
    -0.8559  -0.7026  -0.6685  -0.5568  -0.3592  -0.1057   0.3646   0.6430
     0.7461   0.9787   1.1143   1.1777   1.3580   1.4354   1.5294   1.5998
     1.7038   1.7990   2.0206   2.1864   2.3388   2.4898   2.6400   2.8998
     2.9664   3.0220   3.1684   3.2588

          k =-0.5000-2.0530 0.0000 ( 85452 PWs)   bands (ev):

  -104.6620-103.0593-103.0352-103.0310-102.9073-102.7144 -68.8591 -68.8396
   -68.6201 -68.2443 -65.3029 -65.1727 -64.9530 -63.6588 -63.6117 -63.5719
   -63.5591 -63.4700 -63.4645 -63.4357 -63.3479 -63.3087 -63.2691 -63.2614
   -63.2117 -63.1819 -63.1675 -62.9974 -36.1416 -35.3190 -35.3029 -35.2707
   -35.2492 -35.2374 -35.2336 -35.2197 -35.0812 -35.0167 -34.9681 -34.5558
   -16.1975 -12.8320 -12.1410 -11.4017 -11.2476 -11.1897 -11.1674 -11.1079
   -10.9156 -10.8693  -7.6175  -7.3257  -7.1245  -6.7777  -5.6742  -5.5848
    -5.4547  -5.4276  -5.3706  -5.2249  -4.8815  -4.7195  -4.4995  -4.2841
    -4.2189  -4.0226  -3.9557  -3.7976  -3.7131  -3.6241  -3.5485  -3.5249
    -3.3308  -3.2554  -3.2264  -3.1747  -3.0984  -3.0866  -2.9787  -2.6177
    -2.5276  -2.4995  -2.3650  -2.2987  -2.2609  -2.2306  -2.0887  -2.0039
    -1.9738  -1.9640  -1.8516  -1.7822  -1.7242  -1.5965  -1.5852  -1.4712
    -1.3402  -1.2673  -1.2075  -1.1189  -1.0809  -1.0414  -1.0107  -0.9151
    -0.8726  -0.7502  -0.7213  -0.5603  -0.3275  -0.2134   0.3244   0.5575
     0.7542   0.8589   1.1953   1.2033   1.2898   1.4892   1.5611   1.6939
     1.7796   1.8427   2.1279   2.2096   2.3163   2.4962   2.6515   2.9080
     3.0782   3.1012   3.2261   3.3231

     the Fermi energy is     0.1137 ev

!    total energy              =   -9107.74532625 Ry
     total all-electron energy =     -9107.745326 Ry
     estimated scf accuracy    <          9.9E-09 Ry
     smearing contrib. (-TS)   =      -0.00031928 Ry
     internal energy E=F+TS    =   -9107.74500697 Ry

     The total energy is F=E-TS. E is the sum of the following terms:
     one-electron contribution =  -16518.15962042 Ry
     hartree contribution      =    8117.69255294 Ry
     xc contribution           =    -366.33292147 Ry
     ewald contribution        =    5926.86724339 Ry
     one-center paw contrib.   =   -6267.81226140 Ry

     convergence has been achieved in  29 iterations

     negative rho (up, down):  6.782E-02 0.000E+00

     Forces acting on atoms (cartesian axes, Ry/au):

     atom    1 type  1   force =    -1.23508187   -0.20287488    1.84841743
     atom    2 type  1   force =    -0.01212479    0.02148701   -0.01688572
     atom    3 type  1   force =     0.03900336   -0.03073117    0.00310383
     atom    4 type  1   force =     0.01104857    0.02205160   -0.01315785
     atom    5 type  2   force =    -0.00957751   -0.03037540    0.00330369
     atom    6 type  2   force =     0.01468656    0.03434917   -0.02819693
     atom    7 type  2   force =    -0.00053806   -0.03145054    0.00881089
     atom    8 type  2   force =    -0.03147514    0.03289669   -0.02303175
     atom    9 type  2   force =    -0.00061969   -0.01227759    0.01094098
     atom   10 type  2   force =     0.31484627    0.17953261   -0.64701281
     atom   11 type  3   force =    -0.15994065    0.05213427   -0.01677885
     atom   12 type  3   force =    -0.00878806   -0.01811445   -0.02457809
     atom   13 type  3   force =     0.00791645   -0.01150565    0.02411867
     atom   14 type  3   force =     0.75223986    0.00978844    0.06355420
     atom   15 type  3   force =    -0.00667375    0.02122855    0.02853123
     atom   16 type  3   force =     0.00990055   -0.01540543   -0.02751987
     atom   17 type  3   force =    -0.00653735   -0.01154515    0.02530971
     atom   18 type  3   force =    -0.85658450    0.02515946    0.77662849
     atom   19 type  3   force =     1.17809862   -0.04563572   -1.98185673
     atom   20 type  3   force =     0.00020111    0.01128819   -0.01370052

     Total force =     3.578226     Total SCF correction =     0.000373


     Computing stress (Cartesian axis) and pressure


     negative rho (up, down):  6.782E-02 0.000E+00
          total   stress  (Ry/bohr**3)                   (kbar)     P=       62.57
   0.00048724   0.00001080  -0.00029988           71.68        1.59      -44.11
   0.00001080   0.00005086   0.00002544            1.59        7.48        3.74
  -0.00029988   0.00002544   0.00073802          -44.11        3.74      108.57


     BFGS Geometry Optimization
     Energy error            =      0.0E+00 Ry
     Gradient error          =      2.0E+00 Ry/Bohr

     number of scf cycles    =   1
     number of bfgs steps    =   0

     energy             new  =   -9107.7453262492 Ry

     new trust radius        =       0.5000000000 bohr
     new conv_thr            =       0.0000000100 Ry


ATOMIC_POSITIONS (angstrom)
Ta           15.2501301022        0.8916461223       12.6559238045
Ta            6.5701593403        2.7472350558       12.5900589012
Ta            2.2696307783        0.9113975335       12.4440220884
Ta           11.0867210369        2.7472998353       12.5906467832
Ni           12.8633092551        0.9114383541       11.7620686535
Ni            4.0457852314        2.7487108331       13.2709086942
Ni            4.7924049882        0.9113149945       11.7624339008
Ni           13.6091492219        2.7485441789       13.2717583933
Ni            8.8282755644        0.9135148589       12.3694609417
Ni            0.0442017079        2.7653688799       12.5933729086
Te           14.1946911178        2.7507514592       10.5333315805
Te            5.3917135309        0.9128451495       14.4977520675
Te           10.5963414355        0.9136034303       10.5221012025
Te            1.8614605216        2.7458927867       14.5237870323
Te            3.4429229598        2.7472054007       10.5383071548
Te           12.2651255054        0.9131559778       14.4976349754
Te            7.0608683393        0.9135988979       10.5220752551
Te           15.7836191826        2.7476564253       14.6057758653
Te            0.1434715082        0.9096874162       10.6102249469
Te            8.8285810355        2.7460648641       14.1966058499



     Writing config-only to output data dir /ddn/data/physics/eamoujaes/2D-Ta2Ni3Te5/ELASTIC/C12/OUT/ta2ni3te5.save/
     NEW-OLD atomic charge density approx. for the potential

     negative rho (up, down):  6.736E-02 0.000E+00

     total cpu time spent up to now is      680.1 secs

     Self-consistent Calculation

     iteration #  1     ecut=    60.00 Ry     beta= 0.20
     Davidson diagonalization with overlap
     c_bands:  2 eigenvalues not converged
     c_bands:  1 eigenvalues not converged
     ethr =  1.00E-06,  avg # of iterations = 19.1

     negative rho (up, down):  6.680E-02 0.000E+00

     total cpu time spent up to now is      759.9 secs

     total energy              =   -9108.91040326 Ry
     estimated scf accuracy    <       0.79716296 Ry

     iteration #  2     ecut=    60.00 Ry     beta= 0.20
     Davidson diagonalization with overlap
     ethr =  3.62E-04,  avg # of iterations =  4.0

     negative rho (up, down):  6.668E-02 0.000E+00

     total cpu time spent up to now is      778.0 secs

     total energy              =   -9108.91775288 Ry
     estimated scf accuracy    <       3.43525193 Ry

     iteration #  3     ecut=    60.00 Ry     beta= 0.20
     Davidson diagonalization with overlap
     ethr =  3.62E-04,  avg # of iterations =  2.0

     negative rho (up, down):  6.653E-02 0.000E+00

     total cpu time spent up to now is      794.2 secs

     total energy              =   -9109.13410784 Ry
     estimated scf accuracy    <       0.76857010 Ry

     iteration #  4     ecut=    60.00 Ry     beta= 0.20
     Davidson diagonalization with overlap
     ethr =  3.49E-04,  avg # of iterations =  1.0

     negative rho (up, down):  6.633E-02 0.000E+00

     total cpu time spent up to now is      809.1 secs

     total energy              =   -9109.15950453 Ry
     estimated scf accuracy    <       0.10469563 Ry

     iteration #  5     ecut=    60.00 Ry     beta= 0.20
     Davidson diagonalization with overlap
     ethr =  4.76E-05,  avg # of iterations =  1.2

     negative rho (up, down):  6.601E-02 0.000E+00

     total cpu time spent up to now is      825.7 secs

     total energy              =   -9109.15180027 Ry
     estimated scf accuracy    <       0.02205754 Ry

     iteration #  6     ecut=    60.00 Ry     beta= 0.20
     Davidson diagonalization with overlap
     ethr =  1.00E-05,  avg # of iterations =  2.0

     negative rho (up, down):  6.576E-02 0.000E+00

     total cpu time spent up to now is      842.2 secs

     total energy              =   -9109.14452607 Ry
     estimated scf accuracy    <       0.03379763 Ry

     iteration #  7     ecut=    60.00 Ry     beta= 0.20
     Davidson diagonalization with overlap
     ethr =  1.00E-05,  avg # of iterations =  1.3

     negative rho (up, down):  6.556E-02 0.000E+00

     total cpu time spent up to now is      857.9 secs

     total energy              =   -9109.13851889 Ry
     estimated scf accuracy    <       0.03542428 Ry

     iteration #  8     ecut=    60.00 Ry     beta= 0.20
     Davidson diagonalization with overlap
     ethr =  1.00E-05,  avg # of iterations =  1.0

     negative rho (up, down):  6.532E-02 0.000E+00

     total cpu time spent up to now is      880.1 secs

     total energy              =   -9109.13236587 Ry
     estimated scf accuracy    <       0.02971265 Ry

     iteration #  9     ecut=    60.00 Ry     beta= 0.20
     Davidson diagonalization with overlap
     ethr =  1.00E-05,  avg # of iterations =  1.1

     negative rho (up, down):  6.510E-02 0.000E+00

     total cpu time spent up to now is      895.4 secs

     total energy              =   -9109.12902181 Ry
     estimated scf accuracy    <       0.01205640 Ry

     iteration # 10     ecut=    60.00 Ry     beta= 0.20
     Davidson diagonalization with overlap
     ethr =  5.48E-06,  avg # of iterations =  2.9

     negative rho (up, down):  6.488E-02 0.000E+00

     total cpu time spent up to now is      912.8 secs

     total energy              =   -9109.12781113 Ry
     estimated scf accuracy    <       0.00249906 Ry

     iteration # 11     ecut=    60.00 Ry     beta= 0.20
     Davidson diagonalization with overlap
     ethr =  1.14E-06,  avg # of iterations =  6.8

     negative rho (up, down):  6.484E-02 0.000E+00

     total cpu time spent up to now is      932.2 secs

     total energy              =   -9109.12780628 Ry
     estimated scf accuracy    <       0.00037033 Ry

     iteration # 12     ecut=    60.00 Ry     beta= 0.20
     Davidson diagonalization with overlap
     ethr =  1.68E-07,  avg # of iterations =  2.0

     negative rho (up, down):  6.476E-02 0.000E+00

     total cpu time spent up to now is      948.3 secs

     total energy              =   -9109.12762962 Ry
     estimated scf accuracy    <       0.00036772 Ry

     iteration # 13     ecut=    60.00 Ry     beta= 0.20
     Davidson diagonalization with overlap
     ethr =  1.67E-07,  avg # of iterations =  2.0

     negative rho (up, down):  6.472E-02 0.000E+00

     total cpu time spent up to now is      964.2 secs

     total energy              =   -9109.12761104 Ry
     estimated scf accuracy    <       0.00010144 Ry

     iteration # 14     ecut=    60.00 Ry     beta= 0.20
     Davidson diagonalization with overlap
     ethr =  4.61E-08,  avg # of iterations =  2.1

     negative rho (up, down):  6.467E-02 0.000E+00

     total cpu time spent up to now is      980.7 secs

     total energy              =   -9109.12759791 Ry
     estimated scf accuracy    <       0.00017334 Ry

     iteration # 15     ecut=    60.00 Ry     beta= 0.20
     Davidson diagonalization with overlap
     ethr =  4.61E-08,  avg # of iterations =  2.0

     negative rho (up, down):  6.467E-02 0.000E+00

     total cpu time spent up to now is     1000.9 secs

     total energy              =   -9109.12760801 Ry
     estimated scf accuracy    <       0.00001703 Ry

     iteration # 16     ecut=    60.00 Ry     beta= 0.20
     Davidson diagonalization with overlap
     ethr =  7.74E-09,  avg # of iterations =  2.4

     negative rho (up, down):  6.468E-02 0.000E+00

     total cpu time spent up to now is     1017.3 secs

     total energy              =   -9109.12760692 Ry
     estimated scf accuracy    <       0.00001155 Ry

     iteration # 17     ecut=    60.00 Ry     beta= 0.20
     Davidson diagonalization with overlap
     ethr =  5.25E-09,  avg # of iterations =  2.0

     negative rho (up, down):  6.469E-02 0.000E+00

     total cpu time spent up to now is     1038.2 secs

     total energy              =   -9109.12760793 Ry
     estimated scf accuracy    <       0.00000263 Ry

     iteration # 18     ecut=    60.00 Ry     beta= 0.20
     Davidson diagonalization with overlap
     ethr =  1.19E-09,  avg # of iterations =  2.0

     negative rho (up, down):  6.468E-02 0.000E+00

     total cpu time spent up to now is     1054.7 secs

     total energy              =   -9109.12760812 Ry
     estimated scf accuracy    <       0.00000191 Ry

     iteration # 19     ecut=    60.00 Ry     beta= 0.20
     Davidson diagonalization with overlap
     ethr =  8.68E-10,  avg # of iterations =  2.0

     negative rho (up, down):  6.468E-02 0.000E+00

     total cpu time spent up to now is     1073.8 secs

     total energy              =   -9109.12760819 Ry
     estimated scf accuracy    <       0.00000282 Ry

     iteration # 20     ecut=    60.00 Ry     beta= 0.20
     Davidson diagonalization with overlap
     ethr =  8.68E-10,  avg # of iterations =  1.0

     negative rho (up, down):  6.468E-02 0.000E+00

     total cpu time spent up to now is     1088.6 secs

     total energy              =   -9109.12760833 Ry
     estimated scf accuracy    <       0.00000081 Ry

     iteration # 21     ecut=    60.00 Ry     beta= 0.20
     Davidson diagonalization with overlap
     ethr =  3.67E-10,  avg # of iterations =  1.1

     negative rho (up, down):  6.468E-02 0.000E+00

     total cpu time spent up to now is     1114.4 secs

     total energy              =   -9109.12760844 Ry
     estimated scf accuracy    <       0.00000031 Ry

     iteration # 22     ecut=    60.00 Ry     beta= 0.20
     Davidson diagonalization with overlap
     ethr =  1.43E-10,  avg # of iterations =  2.0

     negative rho (up, down):  6.468E-02 0.000E+00

     total cpu time spent up to now is     1148.1 secs

     total energy              =   -9109.12760846 Ry
     estimated scf accuracy    <       0.00000017 Ry

     iteration # 23     ecut=    60.00 Ry     beta= 0.20
     Davidson diagonalization with overlap
     ethr =  7.79E-11,  avg # of iterations =  1.1

     negative rho (up, down):  6.468E-02 0.000E+00

     total cpu time spent up to now is     1163.1 secs

     total energy              =   -9109.12760842 Ry
     estimated scf accuracy    <       0.00000008 Ry

     iteration # 24     ecut=    60.00 Ry     beta= 0.20
     Davidson diagonalization with overlap
     ethr =  3.83E-11,  avg # of iterations =  2.2

     negative rho (up, down):  6.468E-02 0.000E+00

     total cpu time spent up to now is     1179.3 secs

     total energy              =   -9109.12760842 Ry
     estimated scf accuracy    <       0.00000012 Ry

     iteration # 25     ecut=    60.00 Ry     beta= 0.20
     Davidson diagonalization with overlap
     ethr =  3.83E-11,  avg # of iterations =  1.0

     negative rho (up, down):  6.468E-02 0.000E+00

     total cpu time spent up to now is     1194.1 secs

     total energy              =   -9109.12760842 Ry
     estimated scf accuracy    <       0.00000001 Ry

     iteration # 26     ecut=    60.00 Ry     beta= 0.20
     Davidson diagonalization with overlap
     ethr =  6.43E-12,  avg # of iterations =  3.3

     negative rho (up, down):  6.468E-02 0.000E+00

     total cpu time spent up to now is     1210.2 secs

     End of self-consistent calculation

          k = 0.0000 0.0000 0.0000 ( 85337 PWs)   bands (ev):

  -104.1526-103.1085-103.0895-103.0142-103.0065-102.6892 -68.8097 -68.7948
   -68.5623 -68.0511 -64.7361 -64.5893 -64.5068 -63.7503 -63.6903 -63.6388
   -63.5647 -63.5347 -63.4900 -63.4437 -63.3905 -63.3613 -63.2833 -63.2809
   -63.2417 -63.1808 -63.1576 -62.9758 -35.2509 -35.2423 -35.2194 -35.2008
   -35.1897 -35.1822 -35.1338 -34.9742 -34.9429 -34.8689 -34.8240 -34.5693
   -15.3358 -13.7267 -12.2791 -12.1388 -11.6458 -11.5891 -11.4091 -11.3443
   -11.0833 -11.0076  -7.3623  -6.1969  -5.7676  -5.6087  -5.5303  -5.2986
    -5.1688  -4.9339  -4.7507  -4.4684  -4.2856  -4.0738  -3.9800  -3.7574
    -3.7150  -3.5859  -3.5199  -3.4616  -3.3979  -3.3652  -3.2735  -3.2142
    -3.1116  -3.0194  -2.9770  -2.7332  -2.6309  -2.5847  -2.5482  -2.4817
    -2.2822  -2.2225  -2.1619  -2.0955  -2.0694  -1.9549  -1.8880  -1.8218
    -1.6944  -1.6403  -1.5091  -1.4878  -1.4463  -1.4134  -1.3277  -1.2268
    -1.1708  -1.0916  -1.0305  -0.9221  -0.9091  -0.8519  -0.6732  -0.6191
    -0.5126  -0.4511  -0.2733  -0.1051  -0.0008   0.0762   0.1702   0.3873
     0.5478   0.6675   0.9436   1.0448   1.3279   1.3629   1.5793   1.7057
     1.7307   1.8419   1.9814   2.0270   2.1947   2.3644   2.6903   2.7367
     2.8708   3.0014   3.0979   3.2610

          k = 0.0000 0.4106 0.0000 ( 85407 PWs)   bands (ev):

  -104.1526-103.1085-103.0895-103.0141-103.0066-102.6892 -68.8097 -68.7947
   -68.5622 -68.0520 -64.7348 -64.5894 -64.5070 -63.7504 -63.6904 -63.6389
   -63.5648 -63.5339 -63.4910 -63.4432 -63.3915 -63.3611 -63.2834 -63.2804
   -63.2419 -63.1809 -63.1576 -62.9758 -35.2523 -35.2446 -35.2202 -35.2006
   -35.1897 -35.1820 -35.1366 -34.9739 -34.9425 -34.8709 -34.8258 -34.5681
   -15.3023 -13.6561 -12.2137 -12.0753 -11.6052 -11.5617 -11.3715 -11.3102
   -11.0669 -11.0168  -7.2908  -6.1808  -5.8194  -5.6383  -5.4718  -5.2786
    -5.0975  -4.8865  -4.7054  -4.5268  -4.2809  -4.1769  -4.1309  -3.8581
    -3.7866  -3.6485  -3.5898  -3.5259  -3.4737  -3.3902  -3.3314  -3.2424
    -3.1215  -3.0989  -2.9826  -2.8539  -2.6958  -2.6433  -2.5559  -2.4884
    -2.3964  -2.3542  -2.2695  -2.1254  -2.0816  -2.0258  -1.9214  -1.8282
    -1.7051  -1.6685  -1.5859  -1.5059  -1.4810  -1.4500  -1.3237  -1.2780
    -1.1995  -1.1366  -1.0605  -0.9130  -0.8500  -0.8213  -0.6950  -0.5885
    -0.5098  -0.4558  -0.2909  -0.2468  -0.0208   0.1020   0.2434   0.4565
     0.5626   0.7240   0.9685   1.0584   1.2303   1.3819   1.5215   1.5753
     1.6980   1.8333   1.8994   1.9594   2.1219   2.3220   2.4360   2.6766
     2.8612   3.0764   3.2857   3.3812

          k = 0.0000 0.8212 0.0000 ( 85393 PWs)   bands (ev):

  -104.1526-103.1083-103.0897-103.0138-103.0069-102.6892 -68.8096 -68.7946
   -68.5621 -68.0544 -64.7312 -64.5896 -64.5072 -63.7506 -63.6905 -63.6390
   -63.5649 -63.5318 -63.4937 -63.4417 -63.3939 -63.3603 -63.2834 -63.2791
   -63.2424 -63.1810 -63.1577 -62.9758 -35.2565 -35.2509 -35.2217 -35.2003
   -35.1894 -35.1816 -35.1440 -34.9733 -34.9414 -34.8772 -34.8293 -34.5648
   -15.2138 -13.4480 -12.0294 -11.8968 -11.5092 -11.4795 -11.2740 -11.2186
   -11.0615 -11.0239  -7.1069  -6.2454  -5.8514  -5.7269  -5.3873  -5.3511
    -5.0243  -4.9186  -4.7083  -4.6121  -4.4387  -4.2498  -4.1769  -4.0278
    -3.8957  -3.8415  -3.7657  -3.7177  -3.6870  -3.4913  -3.4236  -3.3246
    -3.3048  -3.0961  -3.0506  -3.0100  -2.8738  -2.7862  -2.7012  -2.5750
    -2.5160  -2.4295  -2.3215  -2.2640  -2.1760  -2.0185  -1.9125  -1.8943
    -1.8091  -1.7526  -1.7198  -1.6225  -1.6009  -1.4985  -1.3954  -1.3704
    -1.2703  -1.2175  -1.1248  -0.9532  -0.8586  -0.8072  -0.7558  -0.6694
    -0.5933  -0.5082  -0.3693  -0.2501  -0.0981  -0.0582   0.3880   0.6283
     0.6779   0.8822   0.9577   1.0276   1.1825   1.3573   1.3856   1.4522
     1.5802   1.8292   1.9448   2.0264   2.1195   2.2357   2.4690   2.5240
     3.0003   3.2394   3.5163   3.6220

          k = 0.0000 1.2318 0.0000 ( 85446 PWs)   bands (ev):

  -104.1526-103.1082-103.0898-103.0133-103.0074-102.6892 -68.8095 -68.7945
   -68.5620 -68.0573 -64.7269 -64.5899 -64.5074 -63.7507 -63.6906 -63.6391
   -63.5649 -63.5290 -63.4976 -63.4399 -63.3972 -63.3593 -63.2835 -63.2773
   -63.2429 -63.1810 -63.1577 -62.9760 -35.2626 -35.2588 -35.2228 -35.1997
   -35.1889 -35.1809 -35.1531 -34.9724 -34.9401 -34.8868 -34.8318 -34.5608
   -15.1022 -13.1174 -11.7650 -11.6462 -11.4306 -11.3639 -11.2186 -11.1136
   -11.0877 -10.9750  -6.9195  -6.4303  -6.1560  -5.7229  -5.6673  -5.3585
    -5.0889  -4.8637  -4.8072  -4.7058  -4.5172  -4.4290  -4.2522  -4.1592
    -4.1030  -4.0148  -3.8761  -3.7906  -3.6775  -3.5961  -3.5292  -3.4749
    -3.3567  -3.1677  -3.1482  -3.0099  -2.9720  -2.8885  -2.8107  -2.6703
    -2.5099  -2.4757  -2.3992  -2.2562  -2.2242  -2.1430  -1.9866  -1.9126
    -1.8863  -1.8268  -1.7993  -1.7408  -1.7251  -1.5783  -1.4408  -1.3623
    -1.3303  -1.2872  -1.1776  -1.1484  -1.0491  -0.9093  -0.8573  -0.8095
    -0.7352  -0.6126  -0.4610  -0.3662  -0.2061  -0.1236   0.4892   0.5433
     0.7069   0.9256   1.0318   1.1711   1.2011   1.3163   1.4011   1.5974
     1.7460   1.8818   2.0555   2.1300   2.2953   2.3839   2.4714   2.6589
     2.9664   3.0807   3.3273   3.3966

          k = 0.0000 1.6424 0.0000 ( 85506 PWs)   bands (ev):

  -104.1526-103.1080-103.0900-103.0129-103.0078-102.6892 -68.8094 -68.7944
   -68.5619 -68.0597 -64.7235 -64.5901 -64.5076 -63.7508 -63.6907 -63.6392
   -63.5650 -63.5262 -63.5014 -63.4383 -63.4002 -63.3586 -63.2835 -63.2759
   -63.2434 -63.1810 -63.1578 -62.9762 -35.2681 -35.2654 -35.2232 -35.1993
   -35.1884 -35.1803 -35.1604 -34.9717 -34.9391 -34.8955 -34.8328 -34.5576
   -15.0099 -12.7099 -11.6225 -11.4951 -11.3632 -11.2911 -11.1779 -11.0774
   -11.0090 -10.9229  -6.8766  -6.5988  -6.4355  -6.0820  -5.5782  -5.5040
    -5.1692  -5.0572  -4.9296  -4.8685  -4.5849  -4.5471  -4.3382  -4.2187
    -4.0286  -3.9650  -3.8977  -3.7605  -3.6727  -3.5773  -3.5093  -3.4582
    -3.3782  -3.2315  -3.1527  -3.0686  -3.0286  -2.9455  -2.8444  -2.7484
    -2.6167  -2.4476  -2.3803  -2.3383  -2.2290  -2.1874  -2.0427  -1.9719
    -1.9233  -1.8861  -1.8272  -1.7578  -1.6911  -1.6133  -1.5264  -1.4652
    -1.4054  -1.3272  -1.2710  -1.2235  -1.1439  -1.0254  -0.9435  -0.9291
    -0.8240  -0.7082  -0.5881  -0.5025  -0.3010  -0.1263   0.3166   0.4094
     0.6140   1.0258   1.1772   1.2566   1.2788   1.4795   1.5559   1.6534
     1.8207   1.8560   2.0561   2.2653   2.4394   2.4820   2.6761   2.7923
     2.9139   3.0461   3.0917   3.3237

          k = 0.0000-2.0530 0.0000 ( 85490 PWs)   bands (ev):

  -104.1526-103.1080-103.0900-103.0127-103.0080-102.6892 -68.8093 -68.7943
   -68.5618 -68.0606 -64.7221 -64.5902 -64.5077 -63.7509 -63.6907 -63.6392
   -63.5650 -63.5248 -63.5030 -63.4375 -63.4012 -63.3582 -63.2835 -63.2753
   -63.2435 -63.1810 -63.1577 -62.9762 -35.2703 -35.2679 -35.2233 -35.1991
   -35.1882 -35.1800 -35.1632 -34.9714 -34.9387 -34.8990 -34.8330 -34.5564
   -14.9741 -12.4325 -11.8391 -11.3766 -11.2592 -11.2113 -11.1406 -11.0943
   -11.0055 -10.8926  -6.8798  -6.7421  -6.4196  -6.2691  -5.7009  -5.4841
    -5.2833  -5.0751  -4.9341  -4.8998  -4.7314  -4.5590  -4.3474  -4.1032
    -3.9891  -3.9573  -3.8775  -3.7545  -3.7303  -3.5894  -3.5189  -3.3778
    -3.3110  -3.2063  -3.1914  -3.1605  -3.0475  -2.9709  -2.8369  -2.7469
    -2.6576  -2.5369  -2.3301  -2.2534  -2.2401  -2.1796  -2.0857  -2.0127
    -1.9386  -1.9174  -1.8533  -1.7600  -1.6472  -1.6090  -1.5544  -1.5355
    -1.4310  -1.3665  -1.3069  -1.2808  -1.1217  -1.0495  -0.9838  -0.9646
    -0.8792  -0.7528  -0.6945  -0.5216  -0.2989  -0.1313   0.1876   0.3747
     0.5838   1.0178   1.1833   1.2663   1.3639   1.4956   1.6167   1.7402
     1.8073   1.8521   2.1121   2.2255   2.3845   2.6569   2.6993   2.7936
     2.9523   3.1815   3.2027   3.2933

          k =-0.5000 0.0000 0.0000 ( 85532 PWs)   bands (ev):

  -104.1526-103.1085-103.0895-103.0142-103.0065-102.6892 -68.8097 -68.7948
   -68.5623 -68.0511 -64.7362 -64.5895 -64.5070 -63.7506 -63.6906 -63.6391
   -63.5650 -63.5347 -63.4900 -63.4438 -63.3906 -63.3614 -63.2834 -63.2810
   -63.2418 -63.1811 -63.1577 -62.9758 -35.2509 -35.2423 -35.2194 -35.2008
   -35.1897 -35.1822 -35.1338 -34.9742 -34.9429 -34.8689 -34.8240 -34.5693
   -15.3357 -13.7266 -12.3437 -11.9724 -11.7591 -11.6544 -11.3707 -11.2888
   -11.1474 -10.9581  -7.3658  -6.2103  -5.8167  -5.6124  -5.4891  -5.3234
    -5.1230  -4.9158  -4.5907  -4.4334  -4.3883  -4.2261  -3.9606  -3.9036
    -3.6316  -3.6261  -3.5330  -3.3988  -3.3594  -3.3216  -3.2084  -3.1355
    -3.1082  -3.0027  -2.9622  -2.8881  -2.7048  -2.6209  -2.4933  -2.4818
    -2.2564  -2.2273  -2.1749  -2.0990  -2.0661  -1.9790  -1.8741  -1.8087
    -1.7631  -1.6230  -1.5895  -1.5089  -1.3518  -1.3270  -1.3131  -1.2271
    -1.2122  -1.0814  -1.0231  -0.9585  -0.9047  -0.8837  -0.6328  -0.6058
    -0.4940  -0.3464  -0.2737  -0.2362   0.0227   0.0602   0.2271   0.3417
     0.5640   0.6686   0.8959   1.1149   1.3063   1.3904   1.5172   1.6102
     1.7549   1.8673   1.9925   2.1533   2.2034   2.4219   2.6806   2.7724
     2.7849   2.9130   3.0197   3.2815

          k =-0.5000 0.4106 0.0000 ( 85420 PWs)   bands (ev):

  -104.1526-103.1085-103.0895-103.0141-103.0066-102.6892 -68.8097 -68.7947
   -68.5622 -68.0520 -64.7348 -64.5895 -64.5070 -63.7505 -63.6905 -63.6390
   -63.5649 -63.5339 -63.4910 -63.4432 -63.3914 -63.3611 -63.2834 -63.2804
   -63.2419 -63.1810 -63.1576 -62.9758 -35.2523 -35.2446 -35.2202 -35.2006
   -35.1897 -35.1820 -35.1366 -34.9739 -34.9425 -34.8709 -34.8258 -34.5681
   -15.3023 -13.6560 -12.2768 -11.9126 -11.7100 -11.6216 -11.3408 -11.2671
   -11.1286 -10.9618  -7.2935  -6.1898  -5.8330  -5.6645  -5.4500  -5.3009
    -5.0386  -4.8729  -4.6405  -4.4239  -4.3676  -4.2815  -4.1418  -3.9570
    -3.7795  -3.7124  -3.5812  -3.5237  -3.4016  -3.2751  -3.2659  -3.2360
    -3.1096  -3.0877  -2.9575  -2.8695  -2.7777  -2.7159  -2.5478  -2.4401
    -2.3862  -2.3477  -2.2706  -2.1589  -2.0748  -2.0597  -1.9536  -1.8170
    -1.7809  -1.6558  -1.5623  -1.5231  -1.5058  -1.3923  -1.3217  -1.2590
    -1.1813  -1.1109  -1.0664  -0.9443  -0.8849  -0.8336  -0.6873  -0.5786
    -0.5064  -0.4070  -0.3003  -0.2649  -0.0921   0.1928   0.2994   0.4378
     0.5977   0.6913   0.9478   1.1646   1.2339   1.3234   1.4711   1.5647
     1.6137   1.8462   1.9448   2.0107   2.1960   2.3283   2.4650   2.6501
     2.8433   3.0293   3.0822   3.5058

          k =-0.5000 0.8212 0.0000 ( 85364 PWs)   bands (ev):

  -104.1526-103.1083-103.0897-103.0138-103.0069-102.6892 -68.8096 -68.7946
   -68.5621 -68.0544 -64.7312 -64.5896 -64.5072 -63.7505 -63.6905 -63.6390
   -63.5648 -63.5318 -63.4937 -63.4417 -63.3939 -63.3603 -63.2834 -63.2790
   -63.2423 -63.1809 -63.1576 -62.9758 -35.2565 -35.2509 -35.2217 -35.2003
   -35.1894 -35.1816 -35.1440 -34.9733 -34.9414 -34.8772 -34.8293 -34.5648
   -15.2138 -13.4479 -12.0873 -11.7466 -11.5840 -11.5265 -11.2640 -11.2264
   -11.0807 -10.9766  -7.1069  -6.2430  -5.8496  -5.7305  -5.3924  -5.3667
    -5.0442  -4.8901  -4.7662  -4.5152  -4.3694  -4.3122  -4.2443  -4.0675
    -3.9339  -3.8280  -3.7610  -3.7349  -3.5592  -3.4770  -3.3950  -3.3595
    -3.2322  -3.1256  -3.0404  -3.0019  -2.8803  -2.7675  -2.7110  -2.5689
    -2.4911  -2.4335  -2.3628  -2.2825  -2.1488  -2.0417  -2.0074  -1.9442
    -1.8695  -1.7616  -1.7122  -1.5768  -1.5372  -1.4371  -1.4156  -1.3534
    -1.2659  -1.1831  -1.1459  -1.1055  -0.8400  -0.8054  -0.7673  -0.6886
    -0.6541  -0.4702  -0.3162  -0.2406  -0.1249   0.0382   0.4325   0.6213
     0.7399   0.7708   0.9885   1.0914   1.2059   1.3193   1.3770   1.5074
     1.5363   1.7522   1.9185   2.0814   2.1514   2.3005   2.4168   2.5978
     2.9032   3.2090   3.5122   3.6387

          k =-0.5000 1.2318 0.0000 ( 85432 PWs)   bands (ev):

  -104.1526-103.1082-103.0898-103.0133-103.0074-102.6892 -68.8095 -68.7945
   -68.5620 -68.0573 -64.7269 -64.5899 -64.5074 -63.7507 -63.6906 -63.6391
   -63.5649 -63.5290 -63.4976 -63.4399 -63.3972 -63.3593 -63.2835 -63.2773
   -63.2429 -63.1810 -63.1577 -62.9760 -35.2626 -35.2588 -35.2228 -35.1997
   -35.1889 -35.1809 -35.1531 -34.9724 -34.9401 -34.8868 -34.8318 -34.5608
   -15.1022 -13.1172 -11.8135 -11.5201 -11.4480 -11.4032 -11.2577 -11.1665
   -11.0201 -10.9719  -6.9153  -6.4311  -6.1534  -5.7114  -5.6522  -5.3560
    -5.1291  -4.9457  -4.8593  -4.6581  -4.4994  -4.3757  -4.2763  -4.1190
    -4.0573  -4.0277  -3.9600  -3.7873  -3.6227  -3.5622  -3.5169  -3.4652
    -3.3158  -3.2264  -3.1636  -3.0264  -2.9350  -2.8720  -2.7404  -2.6776
    -2.5180  -2.4588  -2.4071  -2.3253  -2.2606  -2.1313  -2.0122  -1.9830
    -1.9151  -1.8277  -1.7639  -1.7390  -1.7027  -1.5652  -1.4327  -1.3875
    -1.3201  -1.2721  -1.2449  -1.1651  -0.9878  -0.8917  -0.8448  -0.8099
    -0.7684  -0.5754  -0.4841  -0.4022  -0.2042  -0.1499   0.4892   0.5304
     0.7332   0.9418   1.1290   1.2116   1.2754   1.3243   1.3570   1.6287
     1.6943   1.8911   1.9869   2.1228   2.2231   2.4827   2.5610   2.6299
     2.9381   3.0361   3.2646   3.5645

          k =-0.5000 1.6424 0.0000 ( 85370 PWs)   bands (ev):

  -104.1526-103.1080-103.0900-103.0129-103.0078-102.6892 -68.8094 -68.7944
   -68.5619 -68.0597 -64.7233 -64.5900 -64.5075 -63.7507 -63.6905 -63.6390
   -63.5649 -63.5261 -63.5013 -63.4381 -63.4000 -63.3585 -63.2835 -63.2758
   -63.2433 -63.1808 -63.1577 -62.9760 -35.2681 -35.2654 -35.2232 -35.1993
   -35.1884 -35.1803 -35.1604 -34.9717 -34.9391 -34.8955 -34.8328 -34.5576
   -15.0099 -12.7098 -11.6314 -11.4937 -11.3335 -11.2992 -11.1835 -11.0989
   -10.9949 -10.9241  -6.8774  -6.6007  -6.4444  -6.0817  -5.4928  -5.4123
    -5.2727  -5.1794  -4.9069  -4.8225  -4.6698  -4.5564  -4.3042  -4.2623
    -3.9881  -3.9432  -3.8833  -3.7801  -3.6544  -3.5913  -3.5001  -3.4036
    -3.3426  -3.2369  -3.1151  -3.0806  -3.0352  -3.0019  -2.8945  -2.6603
    -2.5806  -2.4505  -2.3966  -2.3245  -2.2832  -2.1623  -2.0497  -1.9923
    -1.9413  -1.9059  -1.8484  -1.7673  -1.6908  -1.6221  -1.5124  -1.4620
    -1.3897  -1.3540  -1.3045  -1.1360  -1.0969  -1.0646  -0.9877  -0.8790
    -0.8340  -0.6956  -0.6660  -0.4884  -0.3032  -0.1564   0.3075   0.3731
     0.6387   1.1308   1.1962   1.2433   1.4346   1.4534   1.5978   1.6713
     1.7511   1.8748   2.0137   2.2142   2.4043   2.4498   2.6049   2.8857
     2.9492   2.9935   3.1654   3.2071

          k =-0.5000-2.0530 0.0000 ( 85452 PWs)   bands (ev):

  -104.1526-103.1080-103.0900-103.0127-103.0080-102.6892 -68.8093 -68.7943
   -68.5618 -68.0606 -64.7221 -64.5901 -64.5076 -63.7508 -63.6906 -63.6391
   -63.5650 -63.5248 -63.5031 -63.4375 -63.4013 -63.3582 -63.2835 -63.2753
   -63.2434 -63.1809 -63.1577 -62.9762 -35.2703 -35.2679 -35.2233 -35.1991
   -35.1882 -35.1800 -35.1632 -34.9714 -34.9387 -34.8990 -34.8330 -34.5564
   -14.9741 -12.4324 -11.8392 -11.3787 -11.2612 -11.2058 -11.1404 -11.0950
   -11.0059 -10.8929  -6.8899  -6.7423  -6.4418  -6.2648  -5.5710  -5.4165
    -5.3127  -5.1527  -5.0566  -4.8880  -4.6980  -4.6061  -4.3697  -4.1460
    -3.9841  -3.9131  -3.8715  -3.7359  -3.6733  -3.5495  -3.5204  -3.3955
    -3.2318  -3.2272  -3.1977  -3.1606  -3.0919  -3.0298  -2.9459  -2.5900
    -2.5615  -2.4925  -2.3762  -2.3169  -2.2532  -2.1844  -2.0568  -1.9991
    -1.9765  -1.9170  -1.8881  -1.7641  -1.7068  -1.5891  -1.5619  -1.4892
    -1.4096  -1.3870  -1.3625  -1.1451  -1.1193  -1.1022  -1.0534  -0.9261
    -0.8601  -0.7613  -0.7407  -0.4880  -0.2802  -0.1700   0.1802   0.3212
     0.6063   1.1166   1.1786   1.2425   1.4083   1.4626   1.7480   1.7928
     1.8259   1.9067   2.0542   2.1969   2.2727   2.5383   2.6219   2.7796
     2.9727   3.0809   3.3077   3.3224

     the Fermi energy is     0.1795 ev

!    total energy              =   -9109.12760842 Ry
     total all-electron energy =     -9109.127608 Ry
     estimated scf accuracy    <          4.6E-09 Ry
     smearing contrib. (-TS)   =      -0.00025011 Ry
     internal energy E=F+TS    =   -9109.12735831 Ry

     The total energy is F=E-TS. E is the sum of the following terms:
     one-electron contribution =  -16452.89109890 Ry
     hartree contribution      =    8085.29877546 Ry
     xc contribution           =    -365.42311158 Ry
     ewald contribution        =    5891.52603074 Ry
     one-center paw contrib.   =   -6267.63795403 Ry

     convergence has been achieved in  26 iterations

     negative rho (up, down):  6.468E-02 0.000E+00

     Forces acting on atoms (cartesian axes, Ry/au):

     atom    1 type  1   force =    -0.26767306   -0.12869258    0.19694710
     atom    2 type  1   force =    -0.01155215    0.02162279   -0.01838000
     atom    3 type  1   force =    -0.00043186   -0.03176391   -0.01859093
     atom    4 type  1   force =     0.00414931    0.02138773   -0.01563994
     atom    5 type  2   force =    -0.00481287   -0.03150645   -0.00490096
     atom    6 type  2   force =     0.02695427    0.03388647   -0.02952747
     atom    7 type  2   force =    -0.00002519   -0.03157794    0.00657416
     atom    8 type  2   force =    -0.03534419    0.03921700   -0.01501713
     atom    9 type  2   force =    -0.00007443   -0.01217494    0.01066128
     atom   10 type  2   force =     0.21832206    0.09170620   -0.31092568
     atom   11 type  3   force =    -0.10772348    0.03442683    0.00671090
     atom   12 type  3   force =    -0.00877230   -0.01778408   -0.02393192
     atom   13 type  3   force =     0.00561424   -0.01045200    0.02478658
     atom   14 type  3   force =     0.37530207    0.01096642    0.02443758
     atom   15 type  3   force =     0.00751973    0.02216716    0.02992612
     atom   16 type  3   force =     0.00570684   -0.01640493   -0.02231001
     atom   17 type  3   force =    -0.00577227   -0.01124173    0.02439160
     atom   18 type  3   force =    -0.43259560    0.02161679    0.38719679
     atom   19 type  3   force =     0.23050570   -0.01642994   -0.23888757
     atom   20 type  3   force =     0.00070319    0.01103112   -0.01352051

     Total force =     0.947780     Total SCF correction =     0.000223


     Computing stress (Cartesian axis) and pressure


     negative rho (up, down):  6.468E-02 0.000E+00
          total   stress  (Ry/bohr**3)                   (kbar)     P=       17.13
   0.00021676   0.00000798  -0.00007283           31.89        1.17      -10.71
   0.00000798  -0.00000125   0.00001380            1.17       -0.18        2.03
  -0.00007283   0.00001380   0.00013393          -10.71        2.03       19.70

     Energy error            =      1.4E+00 Ry
     Gradient error          =      4.3E-01 Ry/Bohr

     number of scf cycles    =   2
     number of bfgs steps    =   1

     energy             old  =   -9107.7453262492 Ry
     energy             new  =   -9109.1276084216 Ry

     CASE: energy            _new < energy            _old

     new trust radius        =       0.5379433261 bohr
     new conv_thr            =       0.0000000100 Ry


ATOMIC_POSITIONS (angstrom)
Ta           15.1837085693        0.8236798725       12.6181856984
Ta            6.5634973404        2.7598159930       12.5792376504
Ta            2.2657450291        0.8928393199       12.4312163635
Ta           11.0884969529        2.7596704359       12.5813271713
Ni           12.8609508883        0.8930207255       11.7584637130
Ni            4.0625833285        2.7683649723       13.2536229822
Ni            4.7924376176        0.8929483172       11.7660490293
Ni           13.5882485200        2.7719219161       13.2637682724
Ni            8.8282825597        0.9064475375       12.3756321184
Ni            0.1622065715        2.8105789270       12.4436218380
Te           14.1368888095        2.7691302427       10.5393973821
Te            5.3866160163        0.9025384576       14.4839010014
Te           10.5993925647        0.9076252336       10.5365701625
Te            2.0448657013        2.7523756825       14.5343862131
Te            3.4486020686        2.7601767549       10.5558305206
Te           12.2680561190        0.9035283545       14.4851472932
Te            7.0575836771        0.9070925187       10.5361684463
Te           15.5712483528        2.7598948300       14.7949433880
Te            0.1901156324        0.9028292643       10.6320182231
Te            8.8290360442        2.7524530983       14.1887635328



     Writing config-only to output data dir /ddn/data/physics/eamoujaes/2D-Ta2Ni3Te5/ELASTIC/C12/OUT/ta2ni3te5.save/
     NEW-OLD atomic charge density approx. for the potential

     negative rho (up, down):  6.417E-02 0.000E+00

     total cpu time spent up to now is     1300.5 secs

     Self-consistent Calculation

     iteration #  1     ecut=    60.00 Ry     beta= 0.20
     Davidson diagonalization with overlap
     ethr =  1.00E-06,  avg # of iterations = 18.5

     negative rho (up, down):  6.395E-02 0.000E+00

     total cpu time spent up to now is     1366.9 secs

     total energy              =   -9108.49995509 Ry
     estimated scf accuracy    <       4.97953168 Ry

     iteration #  2     ecut=    60.00 Ry     beta= 0.20
     Davidson diagonalization with overlap
     ethr =  2.26E-03,  avg # of iterations =  2.8

     negative rho (up, down):  6.404E-02 0.000E+00

     total cpu time spent up to now is     1384.3 secs

     total energy              =   -9106.00257797 Ry
     estimated scf accuracy    <      73.98847002 Ry

     iteration #  3     ecut=    60.00 Ry     beta= 0.20
     Davidson diagonalization with overlap
     ethr =  2.26E-03,  avg # of iterations =  3.0

     negative rho (up, down):  6.412E-02 0.000E+00

     total cpu time spent up to now is     1406.1 secs

     total energy              =   -9109.73295741 Ry
     estimated scf accuracy    <      10.03723423 Ry

     iteration #  4     ecut=    60.00 Ry     beta= 0.20
     Davidson diagonalization with overlap
     ethr =  2.26E-03,  avg # of iterations =  1.0

     negative rho (up, down):  6.416E-02 0.000E+00

     total cpu time spent up to now is     1420.9 secs

     total energy              =   -9109.79303528 Ry
     estimated scf accuracy    <       2.22755846 Ry

     iteration #  5     ecut=    60.00 Ry     beta= 0.20
     Davidson diagonalization with overlap
     ethr =  1.01E-03,  avg # of iterations =  1.0

     negative rho (up, down):  6.414E-02 0.000E+00

     total cpu time spent up to now is     1435.7 secs

     total energy              =   -9109.74120581 Ry
     estimated scf accuracy    <       0.64510554 Ry

     iteration #  6     ecut=    60.00 Ry     beta= 0.20
     Davidson diagonalization with overlap
     ethr =  2.93E-04,  avg # of iterations =  1.4

     negative rho (up, down):  6.405E-02 0.000E+00

     total cpu time spent up to now is     1451.5 secs

     total energy              =   -9109.68347583 Ry
     estimated scf accuracy    <       0.14496453 Ry

     iteration #  7     ecut=    60.00 Ry     beta= 0.20
     Davidson diagonalization with overlap
     ethr =  6.59E-05,  avg # of iterations =  2.0

     negative rho (up, down):  6.400E-02 0.000E+00

     total cpu time spent up to now is     1468.1 secs

     total energy              =   -9109.64956231 Ry
     estimated scf accuracy    <       0.07601122 Ry

     iteration #  8     ecut=    60.00 Ry     beta= 0.20
     Davidson diagonalization with overlap
     ethr =  3.46E-05,  avg # of iterations =  2.0

     negative rho (up, down):  6.396E-02 0.000E+00

     total cpu time spent up to now is     1484.6 secs

     total energy              =   -9109.60558037 Ry
     estimated scf accuracy    <       0.08561425 Ry

     iteration #  9     ecut=    60.00 Ry     beta= 0.20
     Davidson diagonalization with overlap
     ethr =  3.46E-05,  avg # of iterations =  1.0

     negative rho (up, down):  6.389E-02 0.000E+00

     total cpu time spent up to now is     1509.3 secs

     total energy              =   -9109.54961170 Ry
     estimated scf accuracy    <       0.04588437 Ry

     iteration # 10     ecut=    60.00 Ry     beta= 0.20
     Davidson diagonalization with overlap
     ethr =  2.09E-05,  avg # of iterations =  2.0

     negative rho (up, down):  6.378E-02 0.000E+00

     total cpu time spent up to now is     1525.5 secs

     total energy              =   -9109.49900695 Ry
     estimated scf accuracy    <       0.04056098 Ry

     iteration # 11     ecut=    60.00 Ry     beta= 0.20
     Davidson diagonalization with overlap
     ethr =  1.84E-05,  avg # of iterations =  2.0

     negative rho (up, down):  6.373E-02 0.000E+00

     total cpu time spent up to now is     1542.0 secs

     total energy              =   -9109.48758401 Ry
     estimated scf accuracy    <       0.05976000 Ry

     iteration # 12     ecut=    60.00 Ry     beta= 0.20
     Davidson diagonalization with overlap
     ethr =  1.84E-05,  avg # of iterations =  1.0

     negative rho (up, down):  6.372E-02 0.000E+00

     total cpu time spent up to now is     1556.8 secs

     total energy              =   -9109.48480252 Ry
     estimated scf accuracy    <       0.04186185 Ry

     iteration # 13     ecut=    60.00 Ry     beta= 0.20
     Davidson diagonalization with overlap
     ethr =  1.84E-05,  avg # of iterations =  1.2

     negative rho (up, down):  6.361E-02 0.000E+00

     total cpu time spent up to now is     1578.7 secs

     total energy              =   -9109.46637595 Ry
     estimated scf accuracy    <       0.03213627 Ry

     iteration # 14     ecut=    60.00 Ry     beta= 0.20
     Davidson diagonalization with overlap
     ethr =  1.46E-05,  avg # of iterations =  2.0

     negative rho (up, down):  6.358E-02 0.000E+00

     total cpu time spent up to now is     1607.8 secs

     total energy              =   -9109.46764424 Ry
     estimated scf accuracy    <       0.00121309 Ry

     iteration # 15     ecut=    60.00 Ry     beta= 0.20
     Davidson diagonalization with overlap
     ethr =  5.51E-07,  avg # of iterations = 10.5

     negative rho (up, down):  6.358E-02 0.000E+00

     total cpu time spent up to now is     1630.6 secs

     total energy              =   -9109.46792258 Ry
     estimated scf accuracy    <       0.00117103 Ry

     iteration # 16     ecut=    60.00 Ry     beta= 0.20
     Davidson diagonalization with overlap
     ethr =  5.32E-07,  avg # of iterations =  1.4

     negative rho (up, down):  6.357E-02 0.000E+00

     total cpu time spent up to now is     1646.1 secs

     total energy              =   -9109.46798631 Ry
     estimated scf accuracy    <       0.00023596 Ry

     iteration # 17     ecut=    60.00 Ry     beta= 0.20
     Davidson diagonalization with overlap
     ethr =  1.07E-07,  avg # of iterations =  2.0

     negative rho (up, down):  6.357E-02 0.000E+00

     total cpu time spent up to now is     1669.4 secs

     total energy              =   -9109.46796731 Ry
     estimated scf accuracy    <       0.00050833 Ry

     iteration # 18     ecut=    60.00 Ry     beta= 0.20
     Davidson diagonalization with overlap
     ethr =  1.07E-07,  avg # of iterations =  1.6

     negative rho (up, down):  6.356E-02 0.000E+00

     total cpu time spent up to now is     1687.3 secs

     total energy              =   -9109.46796577 Ry
     estimated scf accuracy    <       0.00025564 Ry

     iteration # 19     ecut=    60.00 Ry     beta= 0.20
     Davidson diagonalization with overlap
     ethr =  1.07E-07,  avg # of iterations =  2.0

     negative rho (up, down):  6.355E-02 0.000E+00

     total cpu time spent up to now is     1703.1 secs

     total energy              =   -9109.46798648 Ry
     estimated scf accuracy    <       0.00003850 Ry

     iteration # 20     ecut=    60.00 Ry     beta= 0.20
     Davidson diagonalization with overlap
     ethr =  1.75E-08,  avg # of iterations =  2.0

     negative rho (up, down):  6.355E-02 0.000E+00

     total cpu time spent up to now is     1730.5 secs

     total energy              =   -9109.46797499 Ry
     estimated scf accuracy    <       0.00005346 Ry

     iteration # 21     ecut=    60.00 Ry     beta= 0.20
     Davidson diagonalization with overlap
     ethr =  1.75E-08,  avg # of iterations =  2.0

     negative rho (up, down):  6.355E-02 0.000E+00

     total cpu time spent up to now is     1746.5 secs

     total energy              =   -9109.46797850 Ry
     estimated scf accuracy    <       0.00001123 Ry

     iteration # 22     ecut=    60.00 Ry     beta= 0.20
     Davidson diagonalization with overlap
     ethr =  5.10E-09,  avg # of iterations =  2.0

     negative rho (up, down):  6.354E-02 0.000E+00

     total cpu time spent up to now is     1766.8 secs

     total energy              =   -9109.46797682 Ry
     estimated scf accuracy    <       0.00001616 Ry

     iteration # 23     ecut=    60.00 Ry     beta= 0.20
     Davidson diagonalization with overlap
     ethr =  5.10E-09,  avg # of iterations =  2.0

     negative rho (up, down):  6.354E-02 0.000E+00

     total cpu time spent up to now is     1782.7 secs

     total energy              =   -9109.46797744 Ry
     estimated scf accuracy    <       0.00000276 Ry

     iteration # 24     ecut=    60.00 Ry     beta= 0.20
     Davidson diagonalization with overlap
     ethr =  1.26E-09,  avg # of iterations =  1.0

     negative rho (up, down):  6.354E-02 0.000E+00

     total cpu time spent up to now is     1802.6 secs

     total energy              =   -9109.46797732 Ry
     estimated scf accuracy    <       0.00000142 Ry

     iteration # 25     ecut=    60.00 Ry     beta= 0.20
     Davidson diagonalization with overlap
     ethr =  6.47E-10,  avg # of iterations =  1.2

     negative rho (up, down):  6.354E-02 0.000E+00

     total cpu time spent up to now is     1817.9 secs

     total energy              =   -9109.46797679 Ry
     estimated scf accuracy    <       0.00000142 Ry

     iteration # 26     ecut=    60.00 Ry     beta= 0.20
     Davidson diagonalization with overlap
     ethr =  6.46E-10,  avg # of iterations =  2.0

     negative rho (up, down):  6.354E-02 0.000E+00

     total cpu time spent up to now is     1851.4 secs

     total energy              =   -9109.46797698 Ry
     estimated scf accuracy    <       0.00000029 Ry

     iteration # 27     ecut=    60.00 Ry     beta= 0.20
     Davidson diagonalization with overlap
     ethr =  1.33E-10,  avg # of iterations =  1.0

     negative rho (up, down):  6.354E-02 0.000E+00

     total cpu time spent up to now is     1866.2 secs

     total energy              =   -9109.46797696 Ry
[...]
   -63.3312 -63.3300 -63.3127 -63.3071 -35.2265 -35.2246 -35.2218 -35.2196
   -35.1823 -35.1813 -35.1780 -35.1766 -35.1554 -35.1516 -35.1486 -35.1443
   -12.7105 -12.3422 -12.2558 -11.9558 -11.7513 -11.7446 -11.4432 -11.4026
   -11.3367 -11.1974  -5.9582  -5.6377  -5.6120  -5.4354  -5.2040  -5.1407
    -5.0643  -4.8731  -4.6948  -4.3568  -4.3264  -4.1747  -4.0593  -3.9917
    -3.9836  -3.9270  -3.8801  -3.8294  -3.7689  -3.5931  -3.5195  -3.2721
    -3.2361  -3.2037  -3.1171  -3.0506  -2.9760  -2.7544  -2.6752  -2.6207
    -2.5868  -2.4813  -2.3709  -2.3519  -2.2080  -2.1317  -2.0417  -2.0231
    -1.9802  -1.9630  -1.7792  -1.7387  -1.7075  -1.6718  -1.6241  -1.5588
    -1.5273  -1.3455  -1.3406  -1.0400  -0.8897  -0.8290  -0.7346  -0.6965
    -0.6879  -0.4770  -0.4520  -0.4093  -0.3566  -0.3394   0.2524   0.4516
     0.8444   0.9322   0.9794   1.0198   1.2314   1.3491   1.3887   1.4732
     1.7333   1.8625   1.9973   2.1345   2.3133   2.4504   2.4614   2.5791
     2.5847   3.1467   3.5362   3.6109

          k = 0.0000 1.2318 0.0000 ( 85446 PWs)   bands (ev):

  -103.4266-103.4222-103.3973-103.3958-102.9199-102.9178 -68.7247 -68.7235
   -68.7217 -68.7189 -63.9774 -63.9725 -63.9478 -63.9475 -63.8810 -63.8782
   -63.8448 -63.8427 -63.6788 -63.6745 -63.6484 -63.6467 -63.3685 -63.3669
   -63.3312 -63.3300 -63.3129 -63.3074 -35.2254 -35.2234 -35.2206 -35.2184
   -35.1919 -35.1910 -35.1875 -35.1862 -35.1535 -35.1504 -35.1474 -35.1438
   -12.3820 -12.0450 -12.0006 -11.8203 -11.6710 -11.6215 -11.3675 -11.3193
   -11.2428 -11.1499  -5.9858  -5.7016  -5.7009  -5.5336  -5.2579  -5.2175
    -5.1880  -4.9252  -4.7283  -4.7133  -4.3816  -4.2885  -4.1922  -4.0818
    -4.0336  -4.0049  -3.9264  -3.7645  -3.7210  -3.6693  -3.4729  -3.4363
    -3.3709  -3.1980  -3.1532  -2.9915  -2.9332  -2.8594  -2.7614  -2.6911
    -2.6449  -2.6091  -2.4718  -2.4079  -2.2096  -2.1873  -2.1708  -2.1683
    -2.0912  -2.0835  -1.9443  -1.8398  -1.8234  -1.7255  -1.7215  -1.7091
    -1.5679  -1.5432  -1.5312  -1.2019  -1.1056  -1.0918  -0.8894  -0.8728
    -0.8347  -0.7277  -0.5795  -0.5105  -0.4714  -0.4447   0.1548   0.3728
     1.0334   1.0946   1.1370   1.1571   1.2267   1.2770   1.3108   1.3779
     1.7581   1.7605   2.1414   2.2043   2.3897   2.5383   2.6351   2.6734
     2.7245   3.1008   3.3290   3.4671

          k = 0.0000 1.6424 0.0000 ( 85506 PWs)   bands (ev):

  -103.4265-103.4221-103.3974-103.3959-102.9199-102.9178 -68.7246 -68.7234
   -68.7216 -68.7188 -63.9776 -63.9727 -63.9482 -63.9479 -63.8783 -63.8751
   -63.8485 -63.8460 -63.6777 -63.6733 -63.6489 -63.6470 -63.3685 -63.3669
   -63.3313 -63.3300 -63.3132 -63.3076 -35.2244 -35.2224 -35.2197 -35.2175
   -35.1997 -35.1988 -35.1953 -35.1939 -35.1518 -35.1497 -35.1462 -35.1435
   -12.0004 -11.7631 -11.7362 -11.6477 -11.6259 -11.5227 -11.4039 -11.3485
   -11.1236 -11.1134  -6.1843  -6.1070  -6.0314  -5.9613  -5.3502  -5.2371
    -5.1127  -5.0491  -4.8351  -4.6920  -4.4566  -4.2975  -4.2327  -4.0556
    -3.9601  -3.8601  -3.7510  -3.6046  -3.5993  -3.5579  -3.4730  -3.3557
    -3.3053  -3.2315  -3.1391  -3.0403  -3.0221  -2.8548  -2.8155  -2.8026
    -2.7195  -2.6589  -2.5980  -2.5248  -2.3402  -2.3026  -2.2814  -2.1705
    -2.1417  -2.1116  -2.0413  -1.9286  -1.8965  -1.8712  -1.7773  -1.7606
    -1.5885  -1.5669  -1.5403  -1.5191  -1.2788  -1.2140  -1.1135  -1.0535
    -1.0475  -0.8594  -0.8085  -0.6346  -0.5402  -0.4851   0.1518   0.2922
     1.0172   1.0552   1.1021   1.2295   1.3053   1.4242   1.4324   1.5599
     1.7698   1.8632   2.0976   2.1995   2.3152   2.6176   2.6385   2.7277
     2.9310   3.1651   3.1990   3.2534

          k = 0.0000-2.0530 0.0000 ( 85490 PWs)   bands (ev):

  -103.4265-103.4220-103.3974-103.3959-102.9199-102.9178 -68.7246 -68.7233
   -68.7215 -68.7187 -63.9777 -63.9728 -63.9483 -63.9480 -63.8770 -63.8735
   -63.8501 -63.8473 -63.6773 -63.6728 -63.6491 -63.6472 -63.3685 -63.3669
   -63.3313 -63.3301 -63.3131 -63.3076 -35.2240 -35.2221 -35.2193 -35.2171
   -35.2027 -35.2017 -35.1982 -35.1968 -35.1510 -35.1495 -35.1457 -35.1435
   -11.6826 -11.6815 -11.6129 -11.6124 -11.5373 -11.5364 -11.4484 -11.4465
   -11.0951 -11.0943  -6.2431  -6.2426  -6.2153  -6.2145  -5.3672  -5.3649
    -5.0696  -5.0687  -4.8880  -4.8866  -4.1640  -4.1637  -4.0395  -4.0378
    -4.0038  -4.0036  -3.5560  -3.5525  -3.5400  -3.5374  -3.3041  -3.3026
    -3.2773  -3.2734  -3.2110  -3.2076  -2.9895  -2.9893  -2.8834  -2.8807
    -2.6452  -2.6413  -2.5714  -2.5677  -2.3602  -2.3562  -2.3356  -2.3348
    -2.1796  -2.1781  -1.9404  -1.9379  -1.9089  -1.9077  -1.7521  -1.7488
    -1.5958  -1.5924  -1.5184  -1.5164  -1.3184  -1.3137  -1.2262  -1.2228
    -1.1046  -1.1034  -0.7612  -0.7588  -0.5137  -0.5128   0.2259   0.2298
     1.0111   1.0154   1.2020   1.2070   1.3263   1.3299   1.4075   1.4084
     2.0145   2.0214   2.1534   2.1594   2.4411   2.4501   2.6312   2.6342
     3.0270   3.0297   3.2980   3.3000

          k =-0.5000 0.0000 0.0000 ( 85532 PWs)   bands (ev):

  -103.4268-103.4224-103.3971-103.3956-102.9199-102.9178 -68.7250 -68.7238
   -68.7219 -68.7191 -63.9771 -63.9722 -63.9469 -63.9467 -63.8868 -63.8845
   -63.8380 -63.8363 -63.6814 -63.6773 -63.6472 -63.6458 -63.3685 -63.3669
   -63.3314 -63.3301 -63.3128 -63.3072 -35.2279 -35.2259 -35.2230 -35.2208
   -35.1715 -35.1705 -35.1672 -35.1658 -35.1564 -35.1553 -35.1477 -35.1460
   -12.8893 -12.8893 -12.1186 -12.1171 -11.9913 -11.9881 -11.5699 -11.5676
   -11.2847 -11.2837  -6.0744  -6.0722  -5.6456  -5.6440  -5.1868  -5.1842
    -4.9129  -4.9119  -4.5731  -4.5712  -4.0576  -4.0572  -3.8567  -3.8536
    -3.7910  -3.7891  -3.7132  -3.7099  -3.4820  -3.4809  -3.2269  -3.2236
    -3.0387  -3.0350  -2.8548  -2.8514  -2.5194  -2.5148  -2.4949  -2.4926
    -2.3217  -2.3212  -2.2678  -2.2670  -2.1023  -2.0995  -2.0429  -2.0403
    -1.7827  -1.7781  -1.6187  -1.6170  -1.5367  -1.5348  -1.4415  -1.4364
    -1.1140  -1.1098  -1.0057  -1.0050  -0.8467  -0.8452  -0.5572  -0.5534
    -0.5300  -0.5293  -0.3223  -0.3207  -0.0164  -0.0126   0.2001   0.2012
     0.6043   0.6093   1.0339   1.0382   1.4963   1.4973   1.8043   1.8062
     1.8388   1.8442   1.8809   1.8876   2.5884   2.5946   2.7929   2.7964
     3.0493   3.0523   3.1875   3.1902

          k =-0.5000 0.4106 0.0000 ( 85420 PWs)   bands (ev):

  -103.4267-103.4224-103.3971-103.3957-102.9199-102.9178 -68.7250 -68.7237
   -68.7219 -68.7191 -63.9770 -63.9721 -63.9469 -63.9467 -63.8861 -63.8837
   -63.8387 -63.8370 -63.6809 -63.6769 -63.6473 -63.6458 -63.3685 -63.3668
   -63.3312 -63.3300 -63.3127 -63.3071 -35.2275 -35.2255 -35.2226 -35.2205
   -35.1745 -35.1735 -35.1702 -35.1688 -35.1559 -35.1548 -35.1475 -35.1457
   -12.8151 -12.8151 -12.0647 -12.0633 -11.9571 -11.9538 -11.5440 -11.5415
   -11.2637 -11.2628  -6.0069  -6.0048  -5.5880  -5.5866  -5.1566  -5.1534
    -4.9250  -4.9238  -4.5419  -4.5400  -4.1176  -4.1174  -4.0503  -4.0480
    -3.7350  -3.7299  -3.6657  -3.6647  -3.4674  -3.4661  -3.3220  -3.3194
    -3.0693  -3.0671  -2.9638  -2.9631  -2.6981  -2.6967  -2.6018  -2.5985
    -2.4009  -2.4007  -2.2721  -2.2695  -2.1917  -2.1913  -2.0504  -2.0473
    -1.8540  -1.8516  -1.6387  -1.6368  -1.5520  -1.5504  -1.4948  -1.4918
    -1.2088  -1.2060  -1.0501  -1.0467  -0.8569  -0.8547  -0.5590  -0.5573
    -0.5147  -0.5122  -0.4501  -0.4453   0.0245   0.0270   0.2245   0.2262
     0.6114   0.6118   1.1576   1.1616   1.4598   1.4631   1.6192   1.6203
     1.7657   1.7712   1.9726   1.9761   2.3812   2.3844   2.6385   2.6430
     2.8319   2.8337   3.3608   3.3630

          k =-0.5000 0.8212 0.0000 ( 85364 PWs)   bands (ev):

  -103.4267-103.4223-103.3972-103.3957-102.9199-102.9178 -68.7249 -68.7236
   -68.7218 -68.7190 -63.9771 -63.9722 -63.9473 -63.9470 -63.8839 -63.8814
   -63.8411 -63.8392 -63.6799 -63.6758 -63.6477 -63.6462 -63.3685 -63.3668
   -63.3312 -63.3300 -63.3127 -63.3071 -35.2265 -35.2246 -35.2217 -35.2196
   -35.1823 -35.1813 -35.1780 -35.1766 -35.1546 -35.1534 -35.1469 -35.1450
   -12.6030 -12.6028 -11.9236 -11.9224 -11.8579 -11.8543 -11.4781 -11.4756
   -11.2112 -11.2104  -5.8476  -5.8458  -5.4597  -5.4585  -5.1484  -5.1446
    -5.0572  -5.0565  -4.5514  -4.5508  -4.2326  -4.2297  -4.1787  -4.1776
    -3.8533  -3.8528  -3.7232  -3.7197  -3.5746  -3.5716  -3.3993  -3.3978
    -3.3340  -3.3318  -2.9939  -2.9923  -2.9261  -2.9216  -2.6992  -2.6981
    -2.4760  -2.4719  -2.4294  -2.4271  -2.2419  -2.2408  -2.0410  -2.0387
    -1.9734  -1.9716  -1.7261  -1.7243  -1.6536  -1.6521  -1.5576  -1.5562
    -1.4387  -1.4355  -1.2292  -1.2283  -1.0200  -1.0175  -0.6755  -0.6733
    -0.6247  -0.6204  -0.3857  -0.3825  -0.1478  -0.1456   0.3072   0.3109
     0.7982   0.8020   1.0217   1.0233   1.3706   1.3743   1.5026   1.5063
     1.7575   1.7623   1.9898   1.9915   2.3462   2.3486   2.4408   2.4430
     2.9251   2.9288   3.6846   3.6884

          k =-0.5000 1.2318 0.0000 ( 85432 PWs)   bands (ev):

  -103.4266-103.4222-103.3973-103.3958-102.9199-102.9178 -68.7247 -68.7235
   -68.7217 -68.7189 -63.9774 -63.9725 -63.9478 -63.9475 -63.8810 -63.8782
   -63.8448 -63.8427 -63.6787 -63.6744 -63.6483 -63.6466 -63.3685 -63.3669
   -63.3312 -63.3300 -63.3129 -63.3074 -35.2254 -35.2234 -35.2206 -35.2184
   -35.1919 -35.1910 -35.1876 -35.1862 -35.1529 -35.1517 -35.1462 -35.1443
   -12.2861 -12.2857 -11.7736 -11.7723 -11.6898 -11.6876 -11.4085 -11.4061
   -11.1556 -11.1549  -5.8713  -5.8706  -5.5093  -5.5079  -5.3209  -5.3194
    -5.1597  -5.1574  -4.6108  -4.6099  -4.4553  -4.4547  -4.1294  -4.1279
    -3.9144  -3.9125  -3.8283  -3.8263  -3.6123  -3.6101  -3.4905  -3.4893
    -3.3001  -3.2984  -3.0390  -3.0342  -2.9611  -2.9583  -2.7431  -2.7428
    -2.5574  -2.5554  -2.4975  -2.4937  -2.2659  -2.2626  -2.1749  -2.1734
    -2.0808  -2.0800  -1.8533  -1.8509  -1.7907  -1.7898  -1.6945  -1.6930
    -1.5570  -1.5540  -1.4765  -1.4754  -1.0636  -1.0615  -0.8604  -0.8560
    -0.7751  -0.7697  -0.5570  -0.5552  -0.4155  -0.4141   0.2392   0.2428
     1.0199   1.0218   1.1447   1.1495   1.2256   1.2282   1.5587   1.5649
     1.7370   1.7395   2.1828   2.1857   2.4111   2.4130   2.5912   2.5922
     2.8668   2.8705   3.4313   3.4332

          k =-0.5000 1.6424 0.0000 ( 85370 PWs)   bands (ev):

  -103.4265-103.4221-103.3974-103.3959-102.9199-102.9178 -68.7246 -68.7234
   -68.7216 -68.7188 -63.9775 -63.9726 -63.9480 -63.9477 -63.8782 -63.8749
   -63.8484 -63.8459 -63.6776 -63.6732 -63.6488 -63.6470 -63.3684 -63.3668
   -63.3311 -63.3299 -63.3130 -63.3075 -35.2244 -35.2224 -35.2197 -35.2175
   -35.1997 -35.1988 -35.1953 -35.1939 -35.1515 -35.1501 -35.1458 -35.1437
   -11.9280 -11.9273 -11.6642 -11.6627 -11.5331 -11.5329 -11.4040 -11.4019
   -11.1162 -11.1155  -6.2302  -6.2298  -5.8408  -5.8395  -5.3172  -5.3151
    -5.1835  -5.1825  -4.7408  -4.7384  -4.4339  -4.4334  -4.1570  -4.1552
    -3.8164  -3.8143  -3.6830  -3.6796  -3.4738  -3.4728  -3.4288  -3.4280
    -3.3366  -3.3344  -3.0916  -3.0879  -2.9751  -2.9730  -2.7533  -2.7521
    -2.7312  -2.7293  -2.4550  -2.4533  -2.3835  -2.3811  -2.2862  -2.2836
    -2.1114  -2.1107  -2.0105  -2.0067  -1.8805  -1.8783  -1.7408  -1.7385
    -1.5710  -1.5689  -1.5503  -1.5480  -1.2038  -1.2010  -1.1252  -1.1212
    -0.9857  -0.9827  -0.7405  -0.7389  -0.4951  -0.4943   0.1972   0.2003
     0.9728   0.9777   1.2846   1.2867   1.3480   1.3485   1.5738   1.5750
     1.8670   1.8733   2.1945   2.2011   2.2882   2.2947   2.7821   2.7850
     2.9541   2.9601   3.1916   3.1944

          k =-0.5000-2.0530 0.0000 ( 85452 PWs)   bands (ev):

  -103.4265-103.4220-103.3974-103.3959-102.9199-102.9178 -68.7246 -68.7233
   -68.7215 -68.7187 -63.9776 -63.9727 -63.9483 -63.9479 -63.8771 -63.8736
   -63.8501 -63.8473 -63.6772 -63.6728 -63.6490 -63.6471 -63.3684 -63.3668
   -63.3312 -63.3300 -63.3132 -63.3076 -35.2240 -35.2221 -35.2193 -35.2171
   -35.2027 -35.2017 -35.1982 -35.1969 -35.1510 -35.1495 -35.1457 -35.1435
   -11.6783 -11.6772 -11.6129 -11.6123 -11.5484 -11.5474 -11.4419 -11.4402
   -11.0944 -11.0937  -6.4073  -6.4069  -5.9684  -5.9672  -5.4306  -5.4289
    -5.0493  -5.0483  -4.9660  -4.9638  -4.2134  -4.2133  -4.1170  -4.1160
    -3.8241  -3.8234  -3.4899  -3.4878  -3.4703  -3.4693  -3.4624  -3.4582
    -3.3134  -3.3083  -3.2334  -3.2328  -2.9004  -2.8992  -2.8565  -2.8518
    -2.5938  -2.5910  -2.5801  -2.5793  -2.4181  -2.4166  -2.3593  -2.3564
    -2.1642  -2.1623  -2.0165  -2.0121  -1.8688  -1.8650  -1.7108  -1.7060
    -1.5933  -1.5896  -1.5168  -1.5148  -1.3177  -1.3130  -1.1960  -1.1926
    -1.1859  -1.1847  -0.7580  -0.7558  -0.5286  -0.5279   0.2017   0.2047
     0.9180   0.9232   1.3676   1.3691   1.3821   1.3869   1.4400   1.4438
     1.9336   1.9373   2.1946   2.1996   2.3857   2.3934   2.7592   2.7615
     2.9513   2.9574   3.2581   3.2616

     the Fermi energy is     0.0969 ev

!    total energy              =   -9109.76819212 Ry
     total all-electron energy =     -9109.768192 Ry
     estimated scf accuracy    <          8.6E-11 Ry
     smearing contrib. (-TS)   =      -0.00000619 Ry
     internal energy E=F+TS    =   -9109.76818592 Ry

     The total energy is F=E-TS. E is the sum of the following terms:
     one-electron contribution =  -16326.63702277 Ry
     hartree contribution      =    8021.77668413 Ry
     xc contribution           =    -365.03999992 Ry
     ewald contribution        =    5827.79929497 Ry
     one-center paw contrib.   =   -6267.66714233 Ry

     convergence has been achieved in  18 iterations

     negative rho (up, down):  6.475E-02 0.000E+00

     Forces acting on atoms (cartesian axes, Ry/au):

     atom    1 type  1   force =    -0.00009649    0.00021069   -0.00076552
     atom    2 type  1   force =     0.00002357   -0.00008954    0.00049093
     atom    3 type  1   force =     0.00000552    0.00017022    0.00034169
     atom    4 type  1   force =    -0.00057204    0.00026669   -0.00024443
     atom    5 type  2   force =     0.00047720   -0.00000952   -0.00040321
     atom    6 type  2   force =     0.00059584   -0.00036455    0.00006265
     atom    7 type  2   force =     0.00060843    0.00034873    0.00025787
     atom    8 type  2   force =     0.00030695    0.00010699   -0.00014389
     atom    9 type  2   force =    -0.00043299    0.00005855    0.00035127
     atom   10 type  2   force =     0.00031732    0.00003258    0.00027098
     atom   11 type  3   force =    -0.00024441   -0.00006436    0.00001562
     atom   12 type  3   force =    -0.00004165    0.00020405    0.00026179
     atom   13 type  3   force =     0.00005857   -0.00018241   -0.00038076
     atom   14 type  3   force =    -0.00007190   -0.00010249   -0.00077363
     atom   15 type  3   force =    -0.00048722   -0.00017231   -0.00002339
     atom   16 type  3   force =     0.00024597   -0.00014956   -0.00005046
     atom   17 type  3   force =    -0.00065113    0.00001465    0.00042022
     atom   18 type  3   force =    -0.00024957   -0.00018865   -0.00009453
     atom   19 type  3   force =     0.00011304    0.00000304    0.00054428
     atom   20 type  3   force =     0.00009500   -0.00009281   -0.00013749

     Total force =     0.002435     Total SCF correction =     0.000063


     Computing stress (Cartesian axis) and pressure


     negative rho (up, down):  6.475E-02 0.000E+00
          total   stress  (Ry/bohr**3)                   (kbar)     P=        1.08
   0.00013036   0.00000004   0.00000045           19.18        0.01        0.07
   0.00000004  -0.00006894  -0.00000005            0.01      -10.14       -0.01
   0.00000045  -0.00000005  -0.00003941            0.07       -0.01       -5.80

     Energy error            =      1.1E-05 Ry
     Gradient error          =      7.7E-04 Ry/Bohr

     bfgs converged in  54 scf cycles and  53 bfgs steps
     (criteria: energy <  1.0E-04 Ry, force <  1.0E-03 Ry/Bohr)

     End of BFGS Geometry Optimization

     Final energy             =   -9109.7681921157 Ry

     File /ddn/data/physics/eamoujaes/2D-Ta2Ni3Te5/ELASTIC/C12/OUT/ta2ni3te5.bfgs deleted, as requested
Begin final coordinates

ATOMIC_POSITIONS (angstrom)
Ta           14.7819322706        0.8394323824       12.9213096127
Ta            6.6451280987        2.8198396377       12.1135190623
Ta            2.7441657247        0.8393583014       12.8758694352
Ta           10.8806047168        2.8196783226       12.1623013419
Ni           12.5618390902        0.8397583254       11.7517724478
Ni            4.4251146277        2.8207219591       13.2880500660
Ni            4.9534027520        0.8384240180       11.6766293387
Ni           13.0881613646        2.8201675567       13.3610198837
Ni            8.7576196529        0.8390265326       12.0818816080
Ni            0.6233088956        2.8193383660       12.9494441548
Te           13.8513944360        2.8205770684       10.7897668452
Te            5.7175042539        0.8395007998       14.2453365250
Te           10.4783506304        0.8406148717       10.1944000894
Te            2.3427227728        2.8203577867       14.8453707483
Te            3.6583526812        2.8196124633       10.7253078668
Te           11.7868433048        0.8404072449       14.3111790245
Te            7.0704396879        0.8393591603       10.1536495835
Te           15.2011259056        2.8212785646       14.8815147655
Te            0.6152891675        0.8391321098       11.1804206289
Te            8.7452623294        2.8203469826       13.8495079715
End final coordinates



     Writing all to output data dir /ddn/data/physics/eamoujaes/2D-Ta2Ni3Te5/ELASTIC/C12/OUT/ta2ni3te5.save/
 
     init_run     :     89.58s CPU     42.47s WALL (       1 calls)
     electrons    :  60828.85s CPU  22334.11s WALL (      54 calls)
     update_pot   :   2924.97s CPU    991.23s WALL (      53 calls)
     forces       :   2601.53s CPU    886.58s WALL (      54 calls)
     stress       :   6098.38s CPU   2067.94s WALL (      54 calls)

     Called by init_run:
     wfcinit      :     27.29s CPU      9.74s WALL (       1 calls)
     potinit      :     18.61s CPU      6.35s WALL (       1 calls)
     hinit0       :     35.57s CPU     19.62s WALL (       1 calls)

     Called by electrons:
     c_bands      :  43956.05s CPU  15399.19s WALL (    1258 calls)
     sum_band     :  10366.13s CPU   3728.61s WALL (    1258 calls)
     v_of_rho     :   2887.67s CPU   1105.97s WALL (    1305 calls)
     newd         :   1795.00s CPU    764.45s WALL (    1305 calls)
     PAW_pot      :    829.12s CPU    291.85s WALL (    1358 calls)
     mix_rho      :    700.22s CPU    270.42s WALL (    1258 calls)

     Called by c_bands:
     init_us_2    :    370.84s CPU    125.26s WALL (    5356 calls)
     init_us_2:cp :    370.63s CPU    125.21s WALL (    5356 calls)
     cegterg      :  41319.56s CPU  14176.95s WALL (    2516 calls)

     Called by *egterg:
     cdiaghg      :    482.54s CPU    166.21s WALL (    8230 calls)
     h_psi        :  28318.34s CPU   9727.20s WALL (    8352 calls)
     s_psi        :   2438.32s CPU    813.50s WALL (    8352 calls)
     g_psi        :    112.90s CPU     37.73s WALL (    5834 calls)

     Called by h_psi:
     h_psi:calbec :   2519.61s CPU    842.64s WALL (    8352 calls)
     vloc_psi     :  23173.53s CPU   7979.68s WALL (    8352 calls)
     add_vuspsi   :   2440.16s CPU    814.38s WALL (    8352 calls)

     General routines
     calbec       :   3885.62s CPU   1299.27s WALL (   11514 calls)
     fft          :   1997.97s CPU    755.56s WALL (   18267 calls)
     ffts         :     75.67s CPU     27.24s WALL (    2563 calls)
     fftw         :  20782.40s CPU   7238.09s WALL ( 1835574 calls)
     interpolate  :    249.48s CPU     94.52s WALL (    1305 calls)
 
     Parallel routines
 
     PWSCF        :     20h12m CPU      7h26m WALL

 
   This run was terminated on:   5:27: 2  31Jul2024            

=------------------------------------------------------------------------------=
   JOB DONE.
=------------------------------------------------------------------------------=
