
     Program PWSCF v.7.1 starts on 31Jul2024 at  5:27: 5 

     This program is part of the open-source Quantum ESPRESSO suite
     for quantum simulation of materials; please cite
         "P. Giannozzi et al., J. Phys.:Condens. Matter 21 395502 (2009);
         "P. Giannozzi et al., J. Phys.:Condens. Matter 29 465901 (2017);
         "P. Giannozzi et al., J. Chem. Phys. 152 154105 (2020);
          URL http://www.quantum-espresso.org", 
     in publications or presentations arising from this work. More details at
     http://www.quantum-espresso.org/quote

     Parallel version (MPI & OpenMP), running on      72 processor cores
     Number of MPI processes:                24
     Threads/MPI process:                     3

     MPI processes distributed on     3 nodes
     28478 MiB available memory on the printing compute node when the environment starts
 
     Waiting for input...
     Reading input from standard input
Warning: card &CELL ignored
Warning: card CELL_DYNAMICS='BFGS' ignored
Warning: card PRESS=0.0 ignored
Warning: card CELL_DOFREE='2DXY' ignored
Warning: card / ignored

     Current dimensions of program PWSCF are:
     Max number of different atomic species (ntypx) = 10
     Max number of k-points (npk) =  40000
     Max angular momentum in pseudopotentials (lmaxx) =  4
     Message from routine read_pp_mesh:
     mismatch in mesh size, discarding the one in header
     Message from routine read_pp_mesh:
     mismatch in mesh size, discarding the one in header
     Message from routine read_pp_mesh:
     mismatch in mesh size, discarding the one in header
 
     K-points division:     npool     =       8
     R & G space division:  proc/nbgrp/npool/nimage =       3
     Subspace diagonalization in iterative solution of the eigenvalue problem:
     a serial algorithm will be used

 
     Parallelization info
     --------------------
     sticks:   dense  smooth     PW     G-vecs:    dense   smooth      PW
     Min        2932    1467    407               644988   227940   33645
     Max        2933    1468    408               644999   227942   33654
     Sum        8797    4403   1223              1934977   683823  100949
 
     Using Slab Decomposition
 


     bravais-lattice index     =            0
     lattice parameter (alat)  =      31.3732  a.u.
     unit-cell volume          =   10894.0039 (a.u.)^3
     number of atoms/cell      =           20
     number of atomic types    =            3
     number of electrons       =       220.00
     number of Kohn-Sham states=          132
     kinetic-energy cutoff     =      60.0000  Ry
     charge density cutoff     =     480.0000  Ry
     scf convergence threshold =      1.0E-08
     mixing beta               =       0.2000
     number of iterations used =            8  plain     mixing
     energy convergence thresh.=      1.0E-04
     force convergence thresh. =      1.0E-03
     Exchange-correlation= SLA PW PBX PBC
                           (   1   4   3   4   0   0   0)
     nstep                     =         2000


     celldm(1)=  31.373233  celldm(2)=   0.000000  celldm(3)=   0.000000
     celldm(4)=   0.000000  celldm(5)=   0.000000  celldm(6)=   0.000000

     crystal axes: (cart. coord. in units of alat)
               a(1) = (   1.000000   0.000000   0.000000 )  
               a(2) = (   0.000000   0.233944   0.000000 )  
               a(3) = (   0.000000   0.000000   1.507987 )  

     reciprocal axes: (cart. coord. in units 2 pi/alat)
               b(1) = (  1.000000  0.000000  0.000000 )  
               b(2) = (  0.000000  4.274525  0.000000 )  
               b(3) = (  0.000000  0.000000  0.663136 )  


     PseudoPot. # 1 for Ta read from file:
     /ddn/data/physics/eamoujaes/PSEUDO-CREATED/Ta.upf
     MD5 check sum: d865b2c2c09566b116f2b8decb2c153d
     Pseudo is Projector augmented-wave + core cor, Zval = 13.0
     Generated using ATOMPAW code
     Shape of augmentation charge: SINC**2
     Using radial grid of 2342 points,  6 beta functions with: 
                l(1) =   0
                l(2) =   0
                l(3) =   1
                l(4) =   1
                l(5) =   2
                l(6) =   2
     Q(r) pseudized with 0 coefficients 


     PseudoPot. # 2 for Ni read from file:
     /ddn/data/physics/eamoujaes/PSEUDO-CREATED/Ni.upf
     MD5 check sum: 85a2a5d9d38f4289a1cc30d5adb66a03
     Pseudo is Projector augmented-wave + core cor, Zval = 18.0
     Generated using ATOMPAW code
     Shape of augmentation charge: SINC**2
     Using radial grid of 2342 points,  6 beta functions with: 
                l(1) =   0
                l(2) =   0
                l(3) =   1
                l(4) =   1
                l(5) =   2
                l(6) =   2
     Q(r) pseudized with 0 coefficients 


     PseudoPot. # 3 for Te read from file:
     /ddn/data/physics/eamoujaes/PSEUDO-CREATED/Te.upf
     MD5 check sum: 8d958f193a7511a138982c2e72838810
     Pseudo is Projector augmented-wave + core cor, Zval =  6.0
     Generated using ATOMPAW code
     Shape of augmentation charge: SINC**2
     Using radial grid of 2342 points,  4 beta functions with: 
                l(1) =   0
                l(2) =   0
                l(3) =   1
                l(4) =   1
     Q(r) pseudized with 0 coefficients 


     atomic species   valence    mass     pseudopotential
        Ta            13.00   180.94790     Ta( 1.00)
        Ni            18.00    58.69340     Ni( 1.00)
        Te             6.00   127.60000     Te( 1.00)

     No symmetry found



   Cartesian axes

     site n.     atom                  positions (alat units)
         1           Ta  tau(   1) = (   0.9271076   0.0551092   0.7495386  )
         2           Ta  tau(   2) = (   0.3958288   0.1653277   0.7584626  )
         3           Ta  tau(   3) = (   0.1364387   0.0551092   0.7495281  )
         4           Ta  tau(   4) = (   0.6677179   0.1653277   0.7584723  )
         5           Ni  tau(   5) = (   0.7748710   0.0551092   0.7084502  )
         6           Ni  tau(   6) = (   0.2435911   0.1653277   0.7995509  )
         7           Ni  tau(   7) = (   0.2886680   0.0551092   0.7084341  )
         8           Ni  tau(   8) = (   0.8199470   0.1653277   0.7995664  )
         9           Ni  tau(   9) = (   0.5317640   0.0551092   0.7449829  )
        10           Ni  tau(  10) = (   0.0004865   0.1653277   0.7630171  )
        11           Te  tau(  11) = (   0.8561042   0.1653277   0.6345776  )
        12           Te  tau(  12) = (   0.3248236   0.0551092   0.8734232  )
        13           Te  tau(  13) = (   0.6382022   0.0551092   0.6336185  )
        14           Te  tau(  14) = (   0.1069239   0.1653277   0.8743823  )
        15           Te  tau(  15) = (   0.2074261   0.1653277   0.6345641  )
        16           Te  tau(  16) = (   0.7387055   0.0551092   0.8734365  )
        17           Te  tau(  17) = (   0.4253475   0.0551092   0.6336087  )
        18           Te  tau(  18) = (   0.9566258   0.1653277   0.8743927  )
        19           Te  tau(  19) = (   0.0004999   0.0551092   0.6527900  )
        20           Te  tau(  20) = (   0.5317768   0.1653277   0.8552089  )

     number of k points=    12  Gaussian smearing, width (Ry)=  0.0020
                       cart. coord. in units 2pi/alat
        k(    1) = (   0.0000000   0.0000000   0.0000000), wk =   0.1000000
        k(    2) = (   0.0000000   0.4274525   0.0000000), wk =   0.2000000
        k(    3) = (   0.0000000   0.8549051   0.0000000), wk =   0.2000000
        k(    4) = (   0.0000000   1.2823576   0.0000000), wk =   0.2000000
        k(    5) = (   0.0000000   1.7098101   0.0000000), wk =   0.2000000
        k(    6) = (   0.0000000  -2.1372627   0.0000000), wk =   0.1000000
        k(    7) = (  -0.5000000   0.0000000   0.0000000), wk =   0.1000000
        k(    8) = (  -0.5000000   0.4274525   0.0000000), wk =   0.2000000
        k(    9) = (  -0.5000000   0.8549051   0.0000000), wk =   0.2000000
        k(   10) = (  -0.5000000   1.2823576   0.0000000), wk =   0.2000000
        k(   11) = (  -0.5000000   1.7098101   0.0000000), wk =   0.2000000
        k(   12) = (  -0.5000000  -2.1372627   0.0000000), wk =   0.1000000

     Dense  grid:  1934977 G-vectors     FFT dimensions: ( 225,  54, 360)

     Smooth grid:   683823 G-vectors     FFT dimensions: ( 160,  40, 240)

     Estimated max dynamical RAM per process >       1.02 GB

     Estimated total dynamical RAM >      21.22 GB

     Initial potential from superposition of free atoms

     starting charge     219.9927, renormalised to     220.0000

     negative rho (up, down):  4.917E-02 0.000E+00
     Starting wfcs are  260 randomized atomic wfcs
     Checking if some PAW data can be deallocated... 

     total cpu time spent up to now is      221.6 secs

     Self-consistent Calculation

     iteration #  1     ecut=    60.00 Ry     beta= 0.20
     Davidson diagonalization with overlap
     ethr =  1.00E-02,  avg # of iterations =  2.5

     negative rho (up, down):  5.003E-02 0.000E+00

     total cpu time spent up to now is      240.1 secs

     total energy              =   -9106.62993075 Ry
     estimated scf accuracy    <       9.06906240 Ry

     iteration #  2     ecut=    60.00 Ry     beta= 0.20
     Davidson diagonalization with overlap
     ethr =  4.12E-03,  avg # of iterations =  2.0

     negative rho (up, down):  5.089E-02 0.000E+00

     total cpu time spent up to now is      257.2 secs

     total energy              =   -9104.54756390 Ry
     estimated scf accuracy    <      55.63142053 Ry

     iteration #  3     ecut=    60.00 Ry     beta= 0.20
     Davidson diagonalization with overlap
     ethr =  4.12E-03,  avg # of iterations =  2.0

     negative rho (up, down):  5.167E-02 0.000E+00

     total cpu time spent up to now is      273.5 secs

     total energy              =   -9106.39676889 Ry
     estimated scf accuracy    <      64.40369316 Ry

     iteration #  4     ecut=    60.00 Ry     beta= 0.20
     Davidson diagonalization with overlap
     ethr =  4.12E-03,  avg # of iterations =  1.0

     negative rho (up, down):  5.303E-02 0.000E+00

     total cpu time spent up to now is      288.5 secs

     total energy              =   -9108.94759690 Ry
     estimated scf accuracy    <       3.25079200 Ry

     iteration #  5     ecut=    60.00 Ry     beta= 0.20
     Davidson diagonalization with overlap
     ethr =  1.48E-03,  avg # of iterations =  1.0

     negative rho (up, down):  5.406E-02 0.000E+00

     total cpu time spent up to now is      303.5 secs

     total energy              =   -9109.00065233 Ry
     estimated scf accuracy    <       1.81882896 Ry

     iteration #  6     ecut=    60.00 Ry     beta= 0.20
     Davidson diagonalization with overlap
     ethr =  8.27E-04,  avg # of iterations =  1.0

     negative rho (up, down):  5.572E-02 0.000E+00

     total cpu time spent up to now is      318.5 secs

     total energy              =   -9108.92705824 Ry
     estimated scf accuracy    <       1.34378226 Ry

     iteration #  7     ecut=    60.00 Ry     beta= 0.20
     Davidson diagonalization with overlap
     ethr =  6.11E-04,  avg # of iterations =  1.0

     negative rho (up, down):  6.062E-02 0.000E+00

     total cpu time spent up to now is      333.9 secs

     total energy              =   -9108.78093106 Ry
     estimated scf accuracy    <       0.73794800 Ry

     iteration #  8     ecut=    60.00 Ry     beta= 0.20
     Davidson diagonalization with overlap
     ethr =  3.35E-04,  avg # of iterations =  2.0

     negative rho (up, down):  6.209E-02 0.000E+00

     total cpu time spent up to now is      350.2 secs

     total energy              =   -9108.87691482 Ry
     estimated scf accuracy    <       0.58199293 Ry

     iteration #  9     ecut=    60.00 Ry     beta= 0.20
     Davidson diagonalization with overlap
     ethr =  2.65E-04,  avg # of iterations =  1.0

     negative rho (up, down):  6.289E-02 0.000E+00

     total cpu time spent up to now is      365.3 secs

     total energy              =   -9108.84456333 Ry
     estimated scf accuracy    <       0.43504729 Ry

     iteration # 10     ecut=    60.00 Ry     beta= 0.20
     Davidson diagonalization with overlap
     ethr =  1.98E-04,  avg # of iterations =  1.0

     negative rho (up, down):  6.355E-02 0.000E+00

     total cpu time spent up to now is      380.4 secs

     total energy              =   -9108.85854616 Ry
     estimated scf accuracy    <       0.04070609 Ry

     iteration # 11     ecut=    60.00 Ry     beta= 0.20
     Davidson diagonalization with overlap
     ethr =  1.85E-05,  avg # of iterations = 14.4

     negative rho (up, down):  6.400E-02 0.000E+00

     total cpu time spent up to now is      402.2 secs

     total energy              =   -9108.86224658 Ry
     estimated scf accuracy    <       0.00781299 Ry

     iteration # 12     ecut=    60.00 Ry     beta= 0.20
     Davidson diagonalization with overlap
     ethr =  3.55E-06,  avg # of iterations =  9.6

     negative rho (up, down):  6.477E-02 0.000E+00

     total cpu time spent up to now is      422.8 secs

     total energy              =   -9108.86149042 Ry
     estimated scf accuracy    <       0.01507690 Ry

     iteration # 13     ecut=    60.00 Ry     beta= 0.20
     Davidson diagonalization with overlap
     ethr =  3.55E-06,  avg # of iterations =  2.5

     negative rho (up, down):  6.558E-02 0.000E+00

     total cpu time spent up to now is      439.4 secs

     total energy              =   -9108.86193949 Ry
     estimated scf accuracy    <       0.00342551 Ry

     iteration # 14     ecut=    60.00 Ry     beta= 0.20
     Davidson diagonalization with overlap
     ethr =  1.56E-06,  avg # of iterations =  1.7

     negative rho (up, down):  6.587E-02 0.000E+00

     total cpu time spent up to now is      455.5 secs

     total energy              =   -9108.86212905 Ry
     estimated scf accuracy    <       0.00073940 Ry

     iteration # 15     ecut=    60.00 Ry     beta= 0.20
     Davidson diagonalization with overlap
     ethr =  3.36E-07,  avg # of iterations =  2.0

     negative rho (up, down):  6.608E-02 0.000E+00

     total cpu time spent up to now is      471.8 secs

     total energy              =   -9108.86218771 Ry
     estimated scf accuracy    <       0.00023798 Ry

     iteration # 16     ecut=    60.00 Ry     beta= 0.20
     Davidson diagonalization with overlap
     ethr =  1.08E-07,  avg # of iterations =  2.0

     negative rho (up, down):  6.618E-02 0.000E+00

     total cpu time spent up to now is      488.4 secs

     total energy              =   -9108.86220829 Ry
     estimated scf accuracy    <       0.00009481 Ry

     iteration # 17     ecut=    60.00 Ry     beta= 0.20
     Davidson diagonalization with overlap
     ethr =  4.31E-08,  avg # of iterations =  1.9

     negative rho (up, down):  6.620E-02 0.000E+00

     total cpu time spent up to now is      504.4 secs

     total energy              =   -9108.86221408 Ry
     estimated scf accuracy    <       0.00004404 Ry

     iteration # 18     ecut=    60.00 Ry     beta= 0.20
     Davidson diagonalization with overlap
     ethr =  2.00E-08,  avg # of iterations =  1.9

     negative rho (up, down):  6.620E-02 0.000E+00

     total cpu time spent up to now is      520.5 secs

     total energy              =   -9108.86221576 Ry
     estimated scf accuracy    <       0.00002604 Ry

     iteration # 19     ecut=    60.00 Ry     beta= 0.20
     Davidson diagonalization with overlap
     ethr =  1.18E-08,  avg # of iterations =  2.0

     negative rho (up, down):  6.624E-02 0.000E+00

     total cpu time spent up to now is      536.8 secs

     total energy              =   -9108.86221718 Ry
     estimated scf accuracy    <       0.00005361 Ry

     iteration # 20     ecut=    60.00 Ry     beta= 0.20
     Davidson diagonalization with overlap
     ethr =  1.18E-08,  avg # of iterations =  1.0

     negative rho (up, down):  6.621E-02 0.000E+00

     total cpu time spent up to now is      551.8 secs

     total energy              =   -9108.86221992 Ry
     estimated scf accuracy    <       0.00000833 Ry

     iteration # 21     ecut=    60.00 Ry     beta= 0.20
     Davidson diagonalization with overlap
     ethr =  3.79E-09,  avg # of iterations =  1.7

     negative rho (up, down):  6.618E-02 0.000E+00

     total cpu time spent up to now is      567.9 secs

     total energy              =   -9108.86222016 Ry
     estimated scf accuracy    <       0.00000565 Ry

     iteration # 22     ecut=    60.00 Ry     beta= 0.20
     Davidson diagonalization with overlap
     ethr =  2.57E-09,  avg # of iterations =  1.0

     negative rho (up, down):  6.616E-02 0.000E+00

     total cpu time spent up to now is      582.9 secs

     total energy              =   -9108.86222055 Ry
     estimated scf accuracy    <       0.00000114 Ry

     iteration # 23     ecut=    60.00 Ry     beta= 0.20
     Davidson diagonalization with overlap
     ethr =  5.17E-10,  avg # of iterations =  2.0

     negative rho (up, down):  6.612E-02 0.000E+00

     total cpu time spent up to now is      607.2 secs

     total energy              =   -9108.86222062 Ry
     estimated scf accuracy    <       0.00000061 Ry

     iteration # 24     ecut=    60.00 Ry     beta= 0.20
     Davidson diagonalization with overlap
     ethr =  2.79E-10,  avg # of iterations =  1.8

     negative rho (up, down):  6.609E-02 0.000E+00

     total cpu time spent up to now is      623.3 secs

     total energy              =   -9108.86222069 Ry
     estimated scf accuracy    <       0.00000019 Ry

     iteration # 25     ecut=    60.00 Ry     beta= 0.20
     Davidson diagonalization with overlap
     ethr =  8.86E-11,  avg # of iterations =  2.1

     negative rho (up, down):  6.607E-02 0.000E+00

     total cpu time spent up to now is      640.6 secs

     total energy              =   -9108.86222071 Ry
     estimated scf accuracy    <       0.00000015 Ry

     iteration # 26     ecut=    60.00 Ry     beta= 0.20
     Davidson diagonalization with overlap
     ethr =  6.83E-11,  avg # of iterations =  1.4

     negative rho (up, down):  6.606E-02 0.000E+00

     total cpu time spent up to now is      659.9 secs

     total energy              =   -9108.86222073 Ry
     estimated scf accuracy    <       0.00000012 Ry

     iteration # 27     ecut=    60.00 Ry     beta= 0.20
     Davidson diagonalization with overlap
     ethr =  5.57E-11,  avg # of iterations =  1.1

     negative rho (up, down):  6.605E-02 0.000E+00

     total cpu time spent up to now is      689.2 secs

     total energy              =   -9108.86222073 Ry
     estimated scf accuracy    <       0.00000002 Ry

     iteration # 28     ecut=    60.00 Ry     beta= 0.20
     Davidson diagonalization with overlap
     ethr =  8.15E-12,  avg # of iterations =  4.2

     negative rho (up, down):  6.604E-02 0.000E+00

     total cpu time spent up to now is      707.8 secs

     total energy              =   -9108.86222074 Ry
     estimated scf accuracy    <       0.00000002 Ry

     iteration # 29     ecut=    60.00 Ry     beta= 0.20
     Davidson diagonalization with overlap
     ethr =  7.58E-12,  avg # of iterations =  1.2

     negative rho (up, down):  6.602E-02 0.000E+00

     total cpu time spent up to now is      733.0 secs

     End of self-consistent calculation

          k = 0.0000 0.0000 0.0000 ( 85323 PWs)   bands (ev):

  -104.0406-103.1827-103.1747-103.0707-102.9168-102.8019 -68.8614 -68.7928
   -68.6619 -67.9407 -64.5869 -64.5312 -64.4057 -63.7798 -63.7279 -63.6499
   -63.6131 -63.5554 -63.5311 -63.4697 -63.4542 -63.4239 -63.3374 -63.2981
   -63.2888 -63.2572 -63.1889 -63.0949 -35.3384 -35.3044 -35.2782 -35.2531
   -35.2339 -35.2130 -35.1997 -35.1810 -35.0931 -35.0556 -34.5949 -34.4881
   -14.7070 -13.4038 -12.4334 -12.1994 -11.7788 -11.6650 -11.5400 -11.4565
   -11.3137 -11.1915  -7.0311  -6.3538  -5.7433  -5.6697  -5.4944  -5.4310
    -5.2322  -5.0557  -4.7862  -4.4983  -4.2830  -4.1647  -3.8682  -3.7548
    -3.7458  -3.6691  -3.5719  -3.5012  -3.4857  -3.3650  -3.2862  -3.1665
    -3.1124  -2.9552  -2.9068  -2.7553  -2.6771  -2.6212  -2.6139  -2.4474
    -2.3309  -2.2597  -2.1552  -2.1201  -2.0137  -1.9180  -1.8404  -1.8006
    -1.7504  -1.7158  -1.5517  -1.4963  -1.4741  -1.4084  -1.3085  -1.2131
    -1.1888  -1.1585  -1.0324  -0.9776  -0.9380  -0.8927  -0.6998  -0.6703
    -0.5565  -0.5019  -0.2844  -0.2242  -0.0627   0.0226   0.0783   0.4379
     0.5239   0.7135   0.7903   0.9888   1.2439   1.3260   1.4523   1.6483
     1.7318   1.8825   1.9383   2.3091   2.4771   2.6203   2.7758   2.8022
     2.9872   3.0876   3.1178   3.2046

          k = 0.0000 0.4275 0.0000 ( 85372 PWs)   bands (ev):

  -104.0406-103.1826-103.1748-103.0707-102.9168-102.8019 -68.8613 -68.7927
   -68.6619 -67.9411 -64.5869 -64.5311 -64.4054 -63.7797 -63.7279 -63.6499
   -63.6128 -63.5567 -63.5311 -63.4696 -63.4533 -63.4242 -63.3382 -63.2981
   -63.2884 -63.2573 -63.1889 -63.0951 -35.3379 -35.3053 -35.2800 -35.2531
   -35.2349 -35.2150 -35.2032 -35.1807 -35.0928 -35.0551 -34.5983 -34.4879
   -14.6627 -13.3400 -12.3620 -12.1328 -11.7325 -11.6312 -11.5035 -11.4187
   -11.2953 -11.1717  -6.9661  -6.3086  -5.8663  -5.6049  -5.4324  -5.3890
    -5.1641  -4.9960  -4.7332  -4.4883  -4.2747  -4.2414  -4.0143  -3.9249
    -3.7609  -3.6942  -3.6334  -3.6192  -3.4815  -3.4430  -3.3755  -3.2762
    -3.1985  -3.0345  -2.9530  -2.8293  -2.6783  -2.6322  -2.5674  -2.5167
    -2.4513  -2.3577  -2.2483  -2.1703  -2.0861  -1.9797  -1.9217  -1.8143
    -1.7593  -1.7240  -1.6286  -1.5746  -1.5229  -1.4552  -1.3600  -1.2963
    -1.2382  -1.1781  -1.0388  -0.9604  -0.9214  -0.8195  -0.7990  -0.6676
    -0.5390  -0.5040  -0.3280  -0.2590  -0.1188   0.1068   0.2426   0.3366
     0.4749   0.7302   0.8278   1.0378   1.1525   1.3736   1.4220   1.4849
     1.7869   1.8479   1.8776   2.0518   2.3515   2.5090   2.5471   2.6805
     2.8793   3.0315   3.2982   3.4574

          k = 0.0000 0.8549 0.0000 ( 85484 PWs)   bands (ev):

  -104.0406-103.1821-103.1753-103.0706-102.9168-102.8019 -68.8612 -68.7925
   -68.6617 -67.9421 -64.5867 -64.5310 -64.4045 -63.7798 -63.7279 -63.6499
   -63.6116 -63.5601 -63.5314 -63.4694 -63.4508 -63.4252 -63.3402 -63.2981
   -63.2872 -63.2573 -63.1889 -63.0955 -35.3364 -35.3089 -35.2836 -35.2527
   -35.2390 -35.2185 -35.2125 -35.1800 -35.0919 -35.0538 -34.6075 -34.4871
   -14.5446 -13.1530 -12.1598 -11.9464 -11.6141 -11.5397 -11.4109 -11.3175
   -11.2480 -11.1195  -6.8174  -6.2467  -6.0556  -5.4577  -5.3972  -5.3500
    -5.0035  -4.9468  -4.8018  -4.6236  -4.4281  -4.3183  -4.1815  -4.1094
    -3.8874  -3.8544  -3.8173  -3.7714  -3.6342  -3.5657  -3.4633  -3.4036
    -3.3594  -3.1206  -3.0929  -2.9363  -2.8766  -2.7429  -2.6942  -2.6111
    -2.5349  -2.4743  -2.3670  -2.2816  -2.2400  -2.0763  -1.9871  -1.9170
    -1.8519  -1.7792  -1.7370  -1.6189  -1.5998  -1.5413  -1.4632  -1.3854
    -1.3456  -1.2607  -1.1024  -1.0307  -0.9389  -0.8996  -0.8302  -0.7468
    -0.6997  -0.5805  -0.4151  -0.2973  -0.1944   0.0599   0.2513   0.5599
     0.6510   0.7186   0.9538   0.9986   1.1511   1.2815   1.3884   1.4998
     1.5620   1.8680   1.9344   1.9595   2.2081   2.2763   2.4800   2.5307
     2.9130   3.3453   3.5756   3.8053

          k = 0.0000 1.2824 0.0000 ( 85552 PWs)   bands (ev):

  -104.0406-103.1815-103.1759-103.0706-102.9168-102.8019 -68.8610 -68.7924
   -68.6615 -67.9434 -64.5866 -64.5308 -64.4034 -63.7798 -63.7280 -63.6499
   -63.6096 -63.5642 -63.5317 -63.4690 -63.4476 -63.4268 -63.3426 -63.2980
   -63.2856 -63.2573 -63.1888 -63.0958 -35.3347 -35.3158 -35.2860 -35.2520
   -35.2467 -35.2238 -35.2203 -35.1789 -35.0908 -35.0523 -34.6194 -34.4856
   -14.3948 -12.8606 -11.8671 -11.6904 -11.4741 -11.4358 -11.3360 -11.1903
   -11.1591 -11.0544  -6.7835  -6.3613  -6.0554  -5.8632  -5.4338  -5.3799
    -5.0355  -4.9812  -4.8629  -4.8146  -4.5241  -4.3966  -4.2739  -4.2173
    -4.0695  -3.9850  -3.9349  -3.8045  -3.7049  -3.6273  -3.5896  -3.4486
    -3.3798  -3.2029  -3.1812  -3.0280  -3.0006  -2.9006  -2.8116  -2.7169
    -2.6130  -2.5634  -2.4018  -2.3545  -2.2747  -2.2399  -2.0557  -1.9969
    -1.9343  -1.8751  -1.8132  -1.7344  -1.6622  -1.6357  -1.4749  -1.3932
    -1.3591  -1.3001  -1.2790  -1.1931  -1.0834  -0.9921  -0.9562  -0.8970
    -0.7757  -0.6686  -0.5412  -0.4570  -0.3227  -0.1363   0.2429   0.5287
     0.8201   0.8875   1.0135   1.1474   1.1957   1.2954   1.4154   1.5719
     1.7151   1.8591   2.0091   2.2018   2.3000   2.3869   2.4326   2.6605
     3.0681   3.1595   3.3247   3.4386

          k = 0.0000 1.7098 0.0000 ( 85626 PWs)   bands (ev):

  -104.0406-103.1808-103.1766-103.0706-102.9169-102.8019 -68.8608 -68.7922
   -68.6613 -67.9444 -64.5864 -64.5307 -64.4024 -63.7800 -63.7282 -63.6500
   -63.6077 -63.5678 -63.5321 -63.4686 -63.4446 -63.4284 -63.3444 -63.2982
   -63.2844 -63.2573 -63.1887 -63.0960 -35.3333 -35.3228 -35.2866 -35.2543
   -35.2513 -35.2330 -35.2206 -35.1780 -35.0899 -35.0510 -34.6294 -34.4839
   -14.2705 -12.5176 -11.5913 -11.5517 -11.3892 -11.3199 -11.2568 -11.1208
   -11.0620 -10.9880  -6.9414  -6.4743  -6.3471  -6.1323  -5.6283  -5.5083
    -5.2153  -5.1149  -4.9857  -4.8131  -4.5970  -4.4994  -4.3629  -4.1260
    -4.0498  -3.9598  -3.8286  -3.7306  -3.6646  -3.6179  -3.5051  -3.4676
    -3.3927  -3.2576  -3.2048  -3.1613  -3.0906  -3.0500  -2.9294  -2.7376
    -2.6797  -2.5451  -2.4816  -2.3854  -2.2749  -2.2489  -2.1395  -2.0436
    -1.9439  -1.9093  -1.8699  -1.8366  -1.7175  -1.6440  -1.5066  -1.4707
    -1.4551  -1.3878  -1.2877  -1.2378  -1.1469  -1.1076  -1.0607  -1.0151
    -0.8472  -0.7860  -0.6940  -0.5535  -0.3778  -0.1924   0.0207   0.3888
     0.7466   0.9823   1.1703   1.2220   1.3253   1.3975   1.5429   1.6297
     1.7880   1.8746   2.0561   2.2269   2.4371   2.5901   2.7394   2.8814
     2.9419   3.0619   3.1322   3.3662

          k = 0.0000-2.1373 0.0000 ( 85666 PWs)   bands (ev):

  -104.0406-103.1805-103.1769-103.0706-102.9169-102.8019 -68.8608 -68.7921
   -68.6613 -67.9448 -64.5864 -64.5306 -64.4021 -63.7800 -63.7282 -63.6500
   -63.6069 -63.5692 -63.5322 -63.4684 -63.4433 -63.4293 -63.3451 -63.2981
   -63.2839 -63.2574 -63.1888 -63.0961 -35.3327 -35.3256 -35.2866 -35.2574
   -35.2510 -35.2365 -35.2205 -35.1776 -35.0896 -35.0506 -34.6333 -34.4833
   -14.2222 -12.3144 -11.6736 -11.4262 -11.3017 -11.2519 -11.1909 -11.1186
   -11.0564 -10.9492  -7.0070  -6.6440  -6.4305  -6.2171  -5.7896  -5.5970
    -5.3574  -5.0987  -4.8842  -4.8080  -4.6553  -4.5331  -4.5005  -3.9630
    -3.9350  -3.8490  -3.8133  -3.7768  -3.7250  -3.5958  -3.4895  -3.4452
    -3.3448  -3.3034  -3.2711  -3.1952  -3.1637  -3.0366  -2.9236  -2.7348
    -2.7061  -2.6286  -2.3907  -2.3654  -2.3051  -2.2370  -2.1318  -2.0648
    -1.9820  -1.9410  -1.9103  -1.8051  -1.6987  -1.6638  -1.5980  -1.5424
    -1.4508  -1.4156  -1.2815  -1.2525  -1.1694  -1.1333  -1.1027  -1.0358
    -0.9273  -0.8630  -0.7706  -0.5512  -0.3613  -0.1584  -0.1223   0.3476
     0.6638   1.0079   1.1844   1.1934   1.2853   1.4740   1.5857   1.7041
     1.7429   1.8603   2.1197   2.3035   2.4517   2.6867   2.7054   2.9365
     3.0843   3.1896   3.2596   3.3899

          k =-0.5000 0.0000 0.0000 ( 85266 PWs)   bands (ev):

  -104.0406-103.1827-103.1747-103.0707-102.9168-102.8019 -68.8614 -68.7928
   -68.6619 -67.9407 -64.5869 -64.5311 -64.4056 -63.7797 -63.7278 -63.6498
   -63.6131 -63.5553 -63.5310 -63.4696 -63.4542 -63.4239 -63.3374 -63.2980
   -63.2888 -63.2572 -63.1889 -63.0949 -35.3384 -35.3044 -35.2782 -35.2531
   -35.2339 -35.2130 -35.1997 -35.1810 -35.0931 -35.0556 -34.5949 -34.4881
   -14.7070 -13.4037 -12.4743 -12.0608 -11.8749 -11.7450 -11.4965 -11.4509
   -11.2658 -11.2084  -7.0347  -6.3639  -5.8108  -5.6507  -5.4873  -5.3978
    -5.1599  -5.0445  -4.7321  -4.5555  -4.3426  -4.1953  -4.0027  -3.7695
    -3.7338  -3.5742  -3.5447  -3.4621  -3.4199  -3.3042  -3.2559  -3.1189
    -3.0910  -3.0061  -2.9942  -2.8554  -2.7655  -2.6269  -2.5222  -2.4432
    -2.3357  -2.2917  -2.1484  -2.1321  -2.0043  -1.9043  -1.8706  -1.8088
    -1.7561  -1.7072  -1.5678  -1.4573  -1.4372  -1.3807  -1.2818  -1.2320
    -1.2170  -1.1441  -1.0326  -0.9724  -0.9592  -0.9525  -0.7210  -0.6453
    -0.5024  -0.4056  -0.3172  -0.2605  -0.0573  -0.0007   0.0914   0.4714
     0.4961   0.7148   0.7879   1.0720   1.2219   1.3842   1.4453   1.5057
     1.5900   2.0029   2.1517   2.2685   2.4089   2.5879   2.7002   2.7705
     2.8958   3.0621   3.1052   3.3245

          k =-0.5000 0.4275 0.0000 ( 85368 PWs)   bands (ev):

  -104.0406-103.1826-103.1748-103.0707-102.9168-102.8019 -68.8613 -68.7927
   -68.6619 -67.9411 -64.5868 -64.5311 -64.4054 -63.7797 -63.7279 -63.6499
   -63.6128 -63.5567 -63.5312 -63.4697 -63.4533 -63.4242 -63.3382 -63.2981
   -63.2884 -63.2572 -63.1889 -63.0951 -35.3379 -35.3053 -35.2800 -35.2531
   -35.2349 -35.2150 -35.2032 -35.1807 -35.0928 -35.0551 -34.5983 -34.4879
   -14.6626 -13.3399 -12.4025 -11.9961 -11.8189 -11.7100 -11.4644 -11.4271
   -11.2398 -11.1876  -6.9686  -6.3168  -5.8739  -5.6469  -5.4497  -5.3370
    -5.0811  -4.9896  -4.7239  -4.5064  -4.3547  -4.2041  -4.0908  -3.9657
    -3.8274  -3.6880  -3.6439  -3.5050  -3.4291  -3.3780  -3.2835  -3.2369
    -3.1968  -3.0568  -3.0067  -2.8659  -2.7391  -2.7205  -2.5211  -2.4849
    -2.4590  -2.3462  -2.2444  -2.2161  -2.0996  -1.9960  -1.8836  -1.8673
    -1.7728  -1.7266  -1.5894  -1.5556  -1.5334  -1.4179  -1.3570  -1.2960
    -1.2387  -1.1797  -1.0531  -0.9861  -0.9495  -0.8793  -0.7618  -0.6032
    -0.5677  -0.4327  -0.3439  -0.2604  -0.1472   0.1326   0.2529   0.3725
     0.5385   0.6810   0.8235   1.1288   1.1539   1.2608   1.4453   1.4987
     1.6947   1.8417   1.9200   2.1216   2.3636   2.4696   2.5226   2.7185
     2.7374   3.0129   3.1842   3.6399

          k =-0.5000 0.8549 0.0000 ( 85450 PWs)   bands (ev):

  -104.0406-103.1821-103.1753-103.0706-102.9168-102.8019 -68.8612 -68.7925
   -68.6617 -67.9421 -64.5867 -64.5310 -64.4045 -63.7798 -63.7279 -63.6499
   -63.6115 -63.5600 -63.5314 -63.4694 -63.4508 -63.4252 -63.3402 -63.2981
   -63.2871 -63.2573 -63.1888 -63.0954 -35.3364 -35.3089 -35.2836 -35.2527
   -35.2390 -35.2185 -35.2125 -35.1800 -35.0919 -35.0538 -34.6075 -34.4871
   -14.5446 -13.1528 -12.1986 -11.8169 -11.6711 -11.6093 -11.4007 -11.3550
   -11.1693 -11.1342  -6.8157  -6.2472  -6.0521  -5.5178  -5.4023  -5.3079
    -5.0039  -4.8949  -4.8645  -4.5697  -4.3881  -4.3420  -4.2621  -4.1055
    -3.9741  -3.9005  -3.7865  -3.6987  -3.6018  -3.4782  -3.4245  -3.3581
    -3.3432  -3.1380  -3.0917  -2.9926  -2.8529  -2.7861  -2.7103  -2.5986
    -2.5366  -2.4959  -2.4076  -2.2779  -2.2492  -2.0667  -2.0329  -1.9577
    -1.8563  -1.8082  -1.7325  -1.5930  -1.5470  -1.5017  -1.4513  -1.4035
    -1.3282  -1.2421  -1.2021  -1.0990  -0.9314  -0.8747  -0.8125  -0.7581
    -0.7076  -0.5649  -0.3964  -0.2922  -0.1765   0.1129   0.3334   0.5043
     0.6762   0.7735   0.8143   1.0436   1.2888   1.3266   1.3530   1.4499
     1.5997   1.7604   1.7926   1.9892   2.2826   2.3594   2.4341   2.5692
     2.7822   3.3236   3.5823   3.8424

          k =-0.5000 1.2824 0.0000 ( 85648 PWs)   bands (ev):

  -104.0406-103.1815-103.1759-103.0706-102.9169-102.8019 -68.8610 -68.7924
   -68.6615 -67.9434 -64.5867 -64.5309 -64.4034 -63.7800 -63.7281 -63.6500
   -63.6097 -63.5643 -63.5318 -63.4690 -63.4476 -63.4269 -63.3427 -63.2982
   -63.2856 -63.2574 -63.1889 -63.0958 -35.3347 -35.3158 -35.2860 -35.2520
   -35.2467 -35.2238 -35.2203 -35.1789 -35.0908 -35.0523 -34.6194 -34.4856
   -14.3948 -12.8603 -11.9017 -11.5772 -11.5125 -11.4578 -11.3619 -11.2477
   -11.0830 -11.0656  -6.7772  -6.3626  -6.0504  -5.8450  -5.4940  -5.3404
    -5.0941  -5.0696  -4.8266  -4.6838  -4.5797  -4.3694  -4.2780  -4.1853
    -4.1153  -4.0339  -3.9233  -3.7863  -3.7039  -3.6139  -3.5179  -3.4375
    -3.3248  -3.2349  -3.1610  -3.0331  -3.0094  -2.9192  -2.7987  -2.6975
    -2.6496  -2.5244  -2.4732  -2.3708  -2.3229  -2.1684  -2.1034  -2.0473
    -1.9360  -1.8918  -1.8195  -1.7236  -1.6966  -1.5809  -1.4706  -1.4241
    -1.3516  -1.2801  -1.2616  -1.2007  -1.0736  -0.9629  -0.9480  -0.9059
    -0.7967  -0.6441  -0.5835  -0.5047  -0.3322  -0.1112   0.3044   0.4931
     0.8143   1.0161   1.0384   1.1478   1.2719   1.3185   1.3693   1.6234
     1.6605   1.8554   1.9250   2.0292   2.2799   2.5109   2.5450   2.6354
     3.0043   3.1497   3.2512   3.5040

          k =-0.5000 1.7098 0.0000 ( 85606 PWs)   bands (ev):

  -104.0406-103.1808-103.1766-103.0706-102.9169-102.8019 -68.8608 -68.7922
   -68.6613 -67.9444 -64.5864 -64.5306 -64.4024 -63.7799 -63.7281 -63.6499
   -63.6077 -63.5678 -63.5320 -63.4685 -63.4446 -63.4284 -63.3444 -63.2981
   -63.2844 -63.2573 -63.1888 -63.0960 -35.3333 -35.3228 -35.2866 -35.2543
   -35.2513 -35.2330 -35.2206 -35.1780 -35.0899 -35.0510 -34.6294 -34.4839
   -14.2705 -12.5174 -11.6192 -11.5188 -11.3920 -11.3154 -11.2462 -11.1542
   -11.0456 -10.9886  -6.9428  -6.4813  -6.3487  -6.1282  -5.5453  -5.4124
    -5.3182  -5.3002  -4.8623  -4.7974  -4.6589  -4.4574  -4.4257  -4.1609
    -3.9993  -3.9341  -3.8654  -3.7451  -3.6738  -3.5787  -3.4745  -3.4074
    -3.3516  -3.2695  -3.1971  -3.1401  -3.0940  -3.0533  -3.0241  -2.7229
    -2.6273  -2.5235  -2.4684  -2.4252  -2.3311  -2.1956  -2.1371  -2.0910
    -1.9708  -1.9430  -1.8741  -1.8228  -1.7717  -1.6313  -1.5272  -1.4472
    -1.4100  -1.3741  -1.2892  -1.2129  -1.1719  -1.0957  -1.0436  -0.9764
    -0.8946  -0.7752  -0.7418  -0.5906  -0.3912  -0.1976   0.0456   0.3964
     0.7212   1.1065   1.1632   1.3191   1.4215   1.4445   1.5412   1.6111
     1.7296   1.8432   1.9224   2.2534   2.3598   2.5661   2.6848   2.8662
     2.9983   3.0864   3.1413   3.2695

          k =-0.5000-2.1373 0.0000 ( 85660 PWs)   bands (ev):

  -104.0406-103.1805-103.1769-103.0706-102.9169-102.8019 -68.8608 -68.7921
   -68.6613 -67.9448 -64.5864 -64.5306 -64.4021 -63.7800 -63.7282 -63.6500
   -63.6069 -63.5692 -63.5322 -63.4684 -63.4433 -63.4292 -63.3451 -63.2982
   -63.2839 -63.2573 -63.1887 -63.0961 -35.3327 -35.3256 -35.2866 -35.2574
   -35.2510 -35.2365 -35.2205 -35.1776 -35.0896 -35.0506 -34.6333 -34.4833
   -14.2222 -12.3144 -11.6737 -11.4271 -11.3026 -11.2517 -11.1887 -11.1186
   -11.0567 -10.9493  -7.0145  -6.6502  -6.4395  -6.2242  -5.6603  -5.5045
    -5.4564  -5.2422  -4.8534  -4.7837  -4.7224  -4.5459  -4.4780  -3.9659
    -3.9323  -3.8833  -3.8278  -3.7689  -3.6313  -3.5825  -3.5044  -3.4113
    -3.2973  -3.2685  -3.2616  -3.2370  -3.1975  -3.0651  -3.0065  -2.7204
    -2.6041  -2.5529  -2.4517  -2.3562  -2.2635  -2.2523  -2.1713  -2.0595
    -1.9932  -1.9879  -1.9109  -1.8355  -1.7528  -1.6630  -1.5832  -1.5506
    -1.4138  -1.3865  -1.2926  -1.2191  -1.1822  -1.1281  -1.1065  -1.0077
    -0.9797  -0.8466  -0.7893  -0.5523  -0.3779  -0.1687  -0.1368   0.3725
     0.6403   1.1189   1.1515   1.1913   1.3775   1.5350   1.5429   1.7150
     1.8473   1.8858   2.1122   2.2217   2.2610   2.5075   2.7905   2.8407
     3.0288   3.1846   3.3002   3.3977

     the Fermi energy is     0.0728 ev

!    total energy              =   -9108.86222074 Ry
     total all-electron energy =     -9108.862221 Ry
     estimated scf accuracy    <          7.9E-09 Ry
     smearing contrib. (-TS)   =      -0.00026360 Ry
     internal energy E=F+TS    =   -9108.86195713 Ry

     The total energy is F=E-TS. E is the sum of the following terms:
     one-electron contribution =  -16452.30184463 Ry
     hartree contribution      =    8085.02800810 Ry
     xc contribution           =    -365.69484198 Ry
     ewald contribution        =    5891.84748427 Ry
     one-center paw contrib.   =   -6267.74076290 Ry

     convergence has been achieved in  29 iterations

     negative rho (up, down):  6.602E-02 0.000E+00

     Forces acting on atoms (cartesian axes, Ry/au):

     atom    1 type  1   force =    -0.76967400   -0.09791632    0.81661404
     atom    2 type  1   force =    -0.00542997    0.02030282   -0.01437107
     atom    3 type  1   force =     0.03863633   -0.02773878    0.02247593
     atom    4 type  1   force =     0.01526997    0.02200824   -0.01645166
     atom    5 type  2   force =    -0.01137990   -0.02683165    0.00134037
     atom    6 type  2   force =     0.01345206    0.02738937   -0.02005056
     atom    7 type  2   force =    -0.00233756   -0.02671235    0.00583349
     atom    8 type  2   force =    -0.03521816    0.02911751   -0.00770914
     atom    9 type  2   force =    -0.00268544   -0.01101316    0.01000201
     atom   10 type  2   force =     0.33383197    0.07601378   -0.39309480
     atom   11 type  3   force =    -0.09212978    0.02910407   -0.00250467
     atom   12 type  3   force =    -0.00952506   -0.01681221   -0.02084802
     atom   13 type  3   force =     0.00529848   -0.01144768    0.02011494
     atom   14 type  3   force =     0.23754713    0.01212869    0.00937990
     atom   15 type  3   force =    -0.00124208    0.01776533    0.02297521
     atom   16 type  3   force =     0.00892620   -0.01692315   -0.02001031
     atom   17 type  3   force =    -0.00425319   -0.01032840    0.02053755
     atom   18 type  3   force =    -0.41323796    0.01810484    0.46710570
     atom   19 type  3   force =     0.69627578   -0.01689923   -0.88929870
     atom   20 type  3   force =    -0.00212482    0.01068828   -0.01204022

     Total force =     1.812546     Total SCF correction =     0.000395


     Computing stress (Cartesian axis) and pressure


     negative rho (up, down):  6.602E-02 0.000E+00
          total   stress  (Ry/bohr**3)                   (kbar)     P=       29.14
   0.00029937   0.00000777  -0.00021569           44.04        1.14      -31.73
   0.00000777  -0.00002563   0.00001724            1.14       -3.77        2.54
  -0.00021569   0.00001724   0.00032058          -31.73        2.54       47.16


     BFGS Geometry Optimization
     Energy error            =      0.0E+00 Ry
     Gradient error          =      8.9E-01 Ry/Bohr

     number of scf cycles    =   1
     number of bfgs steps    =   0

     energy             new  =   -9108.8622207363 Ry

     new trust radius        =       0.5000000000 bohr
     new conv_thr            =       0.0000000100 Ry


ATOMIC_POSITIONS (angstrom)
Ta           15.2115543221        0.8919878926       12.6351218546
Ta            6.5702786118        2.7495253615       12.5886300905
Ta            2.2742056897        0.9084261013       12.4489306660
Ta           11.0890301458        2.7499248354       12.5883028913
Ni           12.8617425597        0.9086385863       11.7620035599
Ni            4.0472511028        2.7511852981       13.2694473595
Ni            4.7919191792        0.9086665297       11.7627893796
Ni           13.6045112012        2.7515900923       13.2725952402
Ni            8.8277176349        0.9123438698       12.3705484431
Ni            0.0862728649        2.7625749576       12.5755322749
Te           14.1914621266        2.7515869460       10.5346700644
Te            5.3904907295        0.9109855147       14.4956887179
Te           10.5966742199        0.9122420884       10.5240455491
Te            1.8307925274        2.7476106756       14.5186920807
Te            3.4433977495        2.7489309884       10.5404151958
Te           12.2660803882        0.9109595280       14.4961053822
Te            7.0606221648        0.9125042649       10.5239819357
Te           15.7851060861        2.7490105141       14.6260807924
Te            0.1713928112        0.9109651321       10.6293119734
Te            8.8280602482        2.7472732773       14.1953575486



     Writing config-only to output data dir /ddn/data/physics/eamoujaes/2D-Ta2Ni3Te5/ELASTIC/C12/OUT/ta2ni3te5.save/
     NEW-OLD atomic charge density approx. for the potential

     negative rho (up, down):  6.503E-02 0.000E+00

     total cpu time spent up to now is      825.8 secs

     Self-consistent Calculation

     iteration #  1     ecut=    60.00 Ry     beta= 0.20
     Davidson diagonalization with overlap
     ethr =  1.00E-06,  avg # of iterations = 19.1

     negative rho (up, down):  6.493E-02 0.000E+00

     total cpu time spent up to now is      891.5 secs

     total energy              =   -9108.90868872 Ry
     estimated scf accuracy    <       2.19131372 Ry

     iteration #  2     ecut=    60.00 Ry     beta= 0.20
     Davidson diagonalization with overlap
     ethr =  9.96E-04,  avg # of iterations =  2.9

     negative rho (up, down):  6.497E-02 0.000E+00

     total cpu time spent up to now is      908.8 secs

     total energy              =   -9107.77749135 Ry
     estimated scf accuracy    <      40.93997209 Ry

     iteration #  3     ecut=    60.00 Ry     beta= 0.20
     Davidson diagonalization with overlap
     ethr =  9.96E-04,  avg # of iterations =  2.3

     negative rho (up, down):  6.493E-02 0.000E+00

     total cpu time spent up to now is      925.7 secs

     total energy              =   -9109.54739889 Ry
     estimated scf accuracy    <       3.64941407 Ry

     iteration #  4     ecut=    60.00 Ry     beta= 0.20
     Davidson diagonalization with overlap
     ethr =  9.96E-04,  avg # of iterations =  1.0

     negative rho (up, down):  6.488E-02 0.000E+00

     total cpu time spent up to now is      940.6 secs

     total energy              =   -9109.62570975 Ry
     estimated scf accuracy    <       0.78411478 Ry

     iteration #  5     ecut=    60.00 Ry     beta= 0.20
     Davidson diagonalization with overlap
     ethr =  3.56E-04,  avg # of iterations =  1.0

     negative rho (up, down):  6.482E-02 0.000E+00

     total cpu time spent up to now is      955.6 secs

     total energy              =   -9109.62697262 Ry
     estimated scf accuracy    <       0.15424210 Ry

     iteration #  6     ecut=    60.00 Ry     beta= 0.20
     Davidson diagonalization with overlap
     ethr =  7.01E-05,  avg # of iterations =  1.8

     negative rho (up, down):  6.472E-02 0.000E+00

     total cpu time spent up to now is      971.5 secs

     total energy              =   -9109.60747546 Ry
     estimated scf accuracy    <       0.05354318 Ry

     iteration #  7     ecut=    60.00 Ry     beta= 0.20
     Davidson diagonalization with overlap
     ethr =  2.43E-05,  avg # of iterations =  2.0

     negative rho (up, down):  6.467E-02 0.000E+00

     total cpu time spent up to now is      988.3 secs

     total energy              =   -9109.60367046 Ry
     estimated scf accuracy    <       0.03607946 Ry

     iteration #  8     ecut=    60.00 Ry     beta= 0.20
     Davidson diagonalization with overlap
     ethr =  1.64E-05,  avg # of iterations =  1.7

     negative rho (up, down):  6.459E-02 0.000E+00

     total cpu time spent up to now is     1004.2 secs

     total energy              =   -9109.58825631 Ry
     estimated scf accuracy    <       0.05473328 Ry

     iteration #  9     ecut=    60.00 Ry     beta= 0.20
     Davidson diagonalization with overlap
     ethr =  1.64E-05,  avg # of iterations =  1.1

     negative rho (up, down):  6.443E-02 0.000E+00

     total cpu time spent up to now is     1020.3 secs

     total energy              =   -9109.56977571 Ry
     estimated scf accuracy    <       0.03399444 Ry

     iteration # 10     ecut=    60.00 Ry     beta= 0.20
     Davidson diagonalization with overlap
     ethr =  1.55E-05,  avg # of iterations =  2.0

     negative rho (up, down):  6.433E-02 0.000E+00

     total cpu time spent up to now is     1036.3 secs

     total energy              =   -9109.56354479 Ry
     estimated scf accuracy    <       0.01654117 Ry

     iteration # 11     ecut=    60.00 Ry     beta= 0.20
     Davidson diagonalization with overlap
     ethr =  7.52E-06,  avg # of iterations =  4.5

     negative rho (up, down):  6.431E-02 0.000E+00

     total cpu time spent up to now is     1055.3 secs

     total energy              =   -9109.56235046 Ry
     estimated scf accuracy    <       0.02148536 Ry

     iteration # 12     ecut=    60.00 Ry     beta= 0.20
     Davidson diagonalization with overlap
     ethr =  7.52E-06,  avg # of iterations =  1.0

     negative rho (up, down):  6.426E-02 0.000E+00

     total cpu time spent up to now is     1070.3 secs

     total energy              =   -9109.55991291 Ry
     estimated scf accuracy    <       0.00904750 Ry

     iteration # 13     ecut=    60.00 Ry     beta= 0.20
     Davidson diagonalization with overlap
     ethr =  4.11E-06,  avg # of iterations =  4.2

     negative rho (up, down):  6.425E-02 0.000E+00

     total cpu time spent up to now is     1088.1 secs

     total energy              =   -9109.55964799 Ry
     estimated scf accuracy    <       0.00384872 Ry

     iteration # 14     ecut=    60.00 Ry     beta= 0.20
     Davidson diagonalization with overlap
     ethr =  1.75E-06,  avg # of iterations =  2.4

     negative rho (up, down):  6.419E-02 0.000E+00

     total cpu time spent up to now is     1125.5 secs

     total energy              =   -9109.55889829 Ry
     estimated scf accuracy    <       0.00247479 Ry

     iteration # 15     ecut=    60.00 Ry     beta= 0.20
     Davidson diagonalization with overlap
     ethr =  1.12E-06,  avg # of iterations =  2.0

     negative rho (up, down):  6.419E-02 0.000E+00

     total cpu time spent up to now is     1141.9 secs

     total energy              =   -9109.55908138 Ry
     estimated scf accuracy    <       0.00040694 Ry

     iteration # 16     ecut=    60.00 Ry     beta= 0.20
     Davidson diagonalization with overlap
     ethr =  1.85E-07,  avg # of iterations =  2.0

     negative rho (up, down):  6.420E-02 0.000E+00

     total cpu time spent up to now is     1158.1 secs

     total energy              =   -9109.55910979 Ry
     estimated scf accuracy    <       0.00011679 Ry

     iteration # 17     ecut=    60.00 Ry     beta= 0.20
     Davidson diagonalization with overlap
     ethr =  5.31E-08,  avg # of iterations =  2.0

     negative rho (up, down):  6.419E-02 0.000E+00

     total cpu time spent up to now is     1174.4 secs

     total energy              =   -9109.55910330 Ry
     estimated scf accuracy    <       0.00010714 Ry

     iteration # 18     ecut=    60.00 Ry     beta= 0.20
     Davidson diagonalization with overlap
     ethr =  4.87E-08,  avg # of iterations =  1.0

     negative rho (up, down):  6.418E-02 0.000E+00

     total cpu time spent up to now is     1208.6 secs

     total energy              =   -9109.55910326 Ry
     estimated scf accuracy    <       0.00005592 Ry

     iteration # 19     ecut=    60.00 Ry     beta= 0.20
     Davidson diagonalization with overlap
     ethr =  2.54E-08,  avg # of iterations =  1.0

     negative rho (up, down):  6.417E-02 0.000E+00

     total cpu time spent up to now is     1223.6 secs

     total energy              =   -9109.55910594 Ry
     estimated scf accuracy    <       0.00001377 Ry

     iteration # 20     ecut=    60.00 Ry     beta= 0.20
     Davidson diagonalization with overlap
     ethr =  6.26E-09,  avg # of iterations =  2.6

     negative rho (up, down):  6.417E-02 0.000E+00

     total cpu time spent up to now is     1242.2 secs

     total energy              =   -9109.55910569 Ry
     estimated scf accuracy    <       0.00000522 Ry

     iteration # 21     ecut=    60.00 Ry     beta= 0.20
     Davidson diagonalization with overlap
     ethr =  2.37E-09,  avg # of iterations =  2.0

     negative rho (up, down):  6.417E-02 0.000E+00

     total cpu time spent up to now is     1258.8 secs

     total energy              =   -9109.55910618 Ry
     estimated scf accuracy    <       0.00000121 Ry

     iteration # 22     ecut=    60.00 Ry     beta= 0.20
     Davidson diagonalization with overlap
     ethr =  5.51E-10,  avg # of iterations =  1.9

     negative rho (up, down):  6.417E-02 0.000E+00

     total cpu time spent up to now is     1280.6 secs

     total energy              =   -9109.55910621 Ry
     estimated scf accuracy    <       0.00000050 Ry

     iteration # 23     ecut=    60.00 Ry     beta= 0.20
     Davidson diagonalization with overlap
     ethr =  2.27E-10,  avg # of iterations =  2.2

     negative rho (up, down):  6.417E-02 0.000E+00

     total cpu time spent up to now is     1296.9 secs

     total energy              =   -9109.55910619 Ry
     estimated scf accuracy    <       0.00000039 Ry

     iteration # 24     ecut=    60.00 Ry     beta= 0.20
     Davidson diagonalization with overlap
     ethr =  1.77E-10,  avg # of iterations =  2.0

     negative rho (up, down):  6.417E-02 0.000E+00

     total cpu time spent up to now is     1315.1 secs

     total energy              =   -9109.55910620 Ry
     estimated scf accuracy    <       0.00000028 Ry

     iteration # 25     ecut=    60.00 Ry     beta= 0.20
     Davidson diagonalization with overlap
     ethr =  1.26E-10,  avg # of iterations =  1.7

     negative rho (up, down):  6.417E-02 0.000E+00

     total cpu time spent up to now is     1330.9 secs

     total energy              =   -9109.55910620 Ry
     estimated scf accuracy    <       0.00000032 Ry

     iteration # 26     ecut=    60.00 Ry     beta= 0.20
     Davidson diagonalization with overlap
     ethr =  1.26E-10,  avg # of iterations =  1.1

     negative rho (up, down):  6.417E-02 0.000E+00

     total cpu time spent up to now is     1347.3 secs

     total energy              =   -9109.55910621 Ry
     estimated scf accuracy    <       0.00000004 Ry

     iteration # 27     ecut=    60.00 Ry     beta= 0.20
     Davidson diagonalization with overlap
     ethr =  1.77E-11,  avg # of iterations =  4.6

     negative rho (up, down):  6.417E-02 0.000E+00

     total cpu time spent up to now is     1376.5 secs

     total energy              =   -9109.55910621 Ry
     estimated scf accuracy    <       0.00000002 Ry

     iteration # 28     ecut=    60.00 Ry     beta= 0.20
     Davidson diagonalization with overlap
     ethr =  8.62E-12,  avg # of iterations =  2.2

     negative rho (up, down):  6.417E-02 0.000E+00

     total cpu time spent up to now is     1401.5 secs

     End of self-consistent calculation

          k = 0.0000 0.0000 0.0000 ( 85323 PWs)   bands (ev):

  -103.5661-103.2063-103.1794-103.1717-103.1712-102.7914 -68.8095 -68.7674
   -68.6441 -68.2122 -64.0818 -63.9999 -63.9194 -63.7827 -63.7693 -63.7628
   -63.7301 -63.6216 -63.6090 -63.5725 -63.5505 -63.4798 -63.4516 -63.4254
   -63.4038 -63.2775 -63.2494 -63.0911 -35.2541 -35.2331 -35.2085 -35.1999
   -35.1927 -35.1640 -35.1627 -35.0690 -35.0396 -34.8369 -34.7909 -34.7407
   -13.9347 -12.8744 -12.4062 -12.2613 -11.7617 -11.6814 -11.5060 -11.4698
   -11.2113 -11.1237  -6.7649  -5.9650  -5.6638  -5.5967  -5.3936  -5.1992
    -5.0703  -4.7682  -4.4888  -4.2980  -4.1270  -3.9395  -3.8820  -3.6915
    -3.6829  -3.5799  -3.4808  -3.4157  -3.3893  -3.3220  -3.1865  -3.0795
    -2.9879  -2.7611  -2.7114  -2.6260  -2.6151  -2.5764  -2.4642  -2.4237
    -2.3502  -2.1623  -2.1187  -2.1058  -1.9736  -1.9381  -1.8905  -1.8031
    -1.7588  -1.6422  -1.5824  -1.5103  -1.4647  -1.4394  -1.2706  -1.2522
    -1.1656  -1.1528  -1.1415  -1.0033  -0.8948  -0.7967  -0.6808  -0.6141
    -0.5438  -0.4949  -0.2793  -0.1627   0.0170   0.0258   0.1017   0.3845
     0.5673   0.6716   0.7869   1.0456   1.3442   1.4280   1.6292   1.7647
     1.7804   1.8241   1.9913   2.1021   2.4655   2.5112   2.7593   2.7932
     2.9059   3.0196   3.1040   3.2341

          k = 0.0000 0.4275 0.0000 ( 85372 PWs)   bands (ev):

  -103.5661-103.2063-103.1792-103.1717-103.1713-102.7914 -68.8094 -68.7673
   -68.6441 -68.2122 -64.0819 -63.9999 -63.9194 -63.7826 -63.7693 -63.7628
   -63.7301 -63.6209 -63.6085 -63.5740 -63.5518 -63.4793 -63.4507 -63.4258
   -63.4038 -63.2775 -63.2495 -63.0913 -35.2550 -35.2349 -35.2109 -35.1997
   -35.1932 -35.1662 -35.1638 -35.0686 -35.0392 -34.8364 -34.7947 -34.7403
   -13.8854 -12.8119 -12.3347 -12.1926 -11.7133 -11.6512 -11.4626 -11.4307
   -11.1887 -11.1081  -6.6874  -5.9105  -5.5986  -5.5675  -5.3396  -5.1361
    -5.0075  -4.7536  -4.4796  -4.3989  -4.1098  -3.9750  -3.8881  -3.7594
    -3.6926  -3.6218  -3.6052  -3.4750  -3.4093  -3.3046  -3.2889  -3.1829
    -3.0731  -2.8772  -2.8534  -2.7511  -2.6477  -2.6004  -2.5822  -2.4783
    -2.3973  -2.3517  -2.2013  -2.1140  -2.0637  -2.0276  -1.9219  -1.8160
    -1.7738  -1.7052  -1.6321  -1.5734  -1.5494  -1.5102  -1.3511  -1.3083
    -1.2351  -1.1754  -1.1575  -0.9473  -0.8968  -0.7840  -0.7102  -0.6034
    -0.5607  -0.4960  -0.3802  -0.2289  -0.0545   0.1291   0.2443   0.4527
     0.5084   0.7322   0.7847   1.0639   1.2798   1.3814   1.5635   1.6286
     1.6766   1.7985   1.9295   2.0816   2.1840   2.4745   2.5589   2.7000
     2.8501   3.0289   3.1217   3.4508

          k = 0.0000 0.8549 0.0000 ( 85484 PWs)   bands (ev):

  -103.5661-103.2062-103.1788-103.1718-103.1718-102.7914 -68.8093 -68.7672
   -68.6439 -68.2122 -64.0822 -63.9999 -63.9193 -63.7827 -63.7695 -63.7629
   -63.7301 -63.6191 -63.6072 -63.5778 -63.5553 -63.4779 -63.4482 -63.4269
   -63.4038 -63.2775 -63.2495 -63.0917 -35.2592 -35.2383 -35.2182 -35.1991
   -35.1935 -35.1755 -35.1630 -35.0673 -35.0382 -34.8351 -34.8048 -34.7391
   -13.7541 -12.6281 -12.1326 -11.9981 -11.5865 -11.5688 -11.3443 -11.3239
   -11.1345 -11.0749  -6.4930  -5.7782  -5.5341  -5.4408  -5.2428  -5.0318
    -4.8896  -4.8277  -4.5753  -4.4410  -4.1924  -4.1266  -4.0798  -4.0000
    -3.8700  -3.8064  -3.7633  -3.7392  -3.6002  -3.4711  -3.3531  -3.2547
    -3.0894  -3.0644  -3.0588  -2.9076  -2.7682  -2.7523  -2.6748  -2.6019
    -2.5515  -2.4564  -2.3432  -2.2543  -2.2253  -2.0124  -1.9537  -1.9055
    -1.8519  -1.8085  -1.7454  -1.6967  -1.6173  -1.5602  -1.5034  -1.4173
    -1.3319  -1.2919  -1.2428  -1.0277  -0.8837  -0.8538  -0.8165  -0.7657
    -0.6786  -0.6162  -0.4534  -0.3099  -0.2526   0.1471   0.2259   0.6385
     0.7136   0.7877   0.9779   1.0099   1.1179   1.3245   1.3501   1.3721
     1.7003   1.8597   1.8699   2.0302   2.1277   2.3220   2.4708   2.5826
     2.8529   3.1916   3.4740   3.7510

          k = 0.0000 1.2824 0.0000 ( 85552 PWs)   bands (ev):

  -103.5661-103.2061-103.1781-103.1724-103.1719-102.7914 -68.8091 -68.7670
   -68.6437 -68.2122 -64.0826 -63.9999 -63.9190 -63.7828 -63.7696 -63.7630
   -63.7302 -63.6160 -63.6050 -63.5828 -63.5596 -63.4763 -63.4448 -63.4286
   -63.4039 -63.2774 -63.2495 -63.0920 -35.2671 -35.2400 -35.2283 -35.1982
   -35.1931 -35.1870 -35.1619 -35.0659 -35.0369 -34.8336 -34.8172 -34.7374
   -13.5873 -12.3372 -11.8409 -11.7167 -11.4639 -11.4245 -11.2150 -11.1722
   -11.1035 -11.0384  -6.3286  -5.7563  -5.5962  -5.4386  -5.3695  -5.2540
    -4.9041  -4.8521  -4.8011  -4.6279  -4.4456  -4.2900  -4.1992  -4.0384
    -4.0203  -3.9303  -3.8709  -3.7379  -3.6781  -3.5708  -3.4298  -3.3546
    -3.1815  -3.1222  -3.0694  -3.0201  -2.9018  -2.8357  -2.7635  -2.6538
    -2.5444  -2.5006  -2.3967  -2.3469  -2.2708  -2.1953  -2.0761  -1.9993
    -1.9238  -1.8774  -1.8576  -1.8056  -1.7105  -1.6300  -1.5324  -1.4722
    -1.4185  -1.3865  -1.3025  -1.2571  -1.0825  -1.0577  -0.9411  -0.8858
    -0.7861  -0.7173  -0.5540  -0.4739  -0.4327  -0.0342   0.1045   0.5358
     0.7600   0.9324   1.0573   1.1344   1.1780   1.2991   1.4323   1.5286
     1.7374   1.9440   2.0408   2.2269   2.2625   2.3649   2.4204   2.7268
     2.9962   3.0947   3.1669   3.3956

          k = 0.0000 1.7098 0.0000 ( 85626 PWs)   bands (ev):

  -103.5661-103.2060-103.1775-103.1731-103.1720-102.7914 -68.8089 -68.7669
   -68.6436 -68.2123 -64.0830 -63.9999 -63.9187 -63.7830 -63.7699 -63.7633
   -63.7304 -63.6125 -63.6030 -63.5876 -63.5633 -63.4750 -63.4413 -63.4306
   -63.4039 -63.2775 -63.2495 -63.0922 -35.2747 -35.2401 -35.2368 -35.1980
   -35.1957 -35.1925 -35.1609 -35.0647 -35.0359 -34.8334 -34.8263 -34.7360
   -13.4491 -11.9821 -11.5449 -11.4336 -11.3621 -11.3049 -11.2107 -11.1401
   -11.0438 -10.9781  -6.3666  -6.0282  -5.9290  -5.7248  -5.6212  -5.3744
    -5.0865  -4.9219  -4.7955  -4.6735  -4.4984  -4.3829  -4.2173  -4.0713
    -3.9407  -3.8776  -3.7405  -3.6634  -3.6147  -3.5306  -3.4375  -3.3667
    -3.1934  -3.1458  -3.0985  -3.0574  -2.9652  -2.9063  -2.8016  -2.6897
    -2.6342  -2.5312  -2.4510  -2.3858  -2.3191  -2.2283  -2.1950  -2.0286
    -1.9876  -1.9369  -1.8878  -1.8507  -1.7842  -1.7209  -1.5709  -1.5518
    -1.4935  -1.4796  -1.4089  -1.2837  -1.2447  -1.1885  -1.0386  -1.0239
    -0.9052  -0.7981  -0.6739  -0.6341  -0.5741  -0.1476  -0.0073   0.3990
     0.5696   0.9952   1.1887   1.2204   1.3981   1.4577   1.5653   1.7405
     1.8776   1.8987   2.0170   2.1390   2.3857   2.6102   2.7005   2.8170
     2.9413   3.0359   3.0785   3.2256

          k = 0.0000-2.1373 0.0000 ( 85666 PWs)   bands (ev):

  -103.5661-103.2059-103.1771-103.1734-103.1721-102.7914 -68.8089 -68.7668
   -68.6435 -68.2123 -64.0831 -64.0000 -63.9187 -63.7830 -63.7699 -63.7633
   -63.7304 -63.6108 -63.6021 -63.5899 -63.5648 -63.4746 -63.4396 -63.4320
   -63.4040 -63.2775 -63.2496 -63.0923 -35.2777 -35.2401 -35.2400 -35.2003
   -35.1966 -35.1922 -35.1605 -35.0642 -35.0355 -34.8347 -34.8284 -34.7355
   -13.3955 -11.7339 -11.4252 -11.4039 -11.2779 -11.2720 -11.2251 -11.1594
   -11.0272 -10.9420  -6.4128  -6.2310  -6.0920  -5.8671  -5.6840  -5.4820
    -5.1883  -4.9874  -4.7052  -4.6141  -4.5345  -4.3763  -4.2951  -3.9111
    -3.8392  -3.8073  -3.7674  -3.6898  -3.6510  -3.4343  -3.3214  -3.2970
    -3.2671  -3.1553  -3.1345  -3.0069  -2.9889  -2.9261  -2.9024  -2.7589
    -2.6887  -2.5833  -2.4216  -2.3645  -2.2741  -2.2448  -2.1993  -2.0483
    -2.0229  -2.0169  -1.9494  -1.8590  -1.7451  -1.7071  -1.6244  -1.5545
    -1.5414  -1.4719  -1.4544  -1.4101  -1.2221  -1.2003  -1.1210  -1.0616
    -0.9794  -0.8275  -0.7916  -0.6843  -0.5865  -0.1799  -0.0273   0.3572
     0.4844   0.9951   1.2012   1.2789   1.4218   1.5011   1.5886   1.7510
     1.8707   1.8770   2.0843   2.2711   2.4324   2.6525   2.6883   2.7491
     2.9437   3.1019   3.2471   3.2890

          k =-0.5000 0.0000 0.0000 ( 85266 PWs)   bands (ev):

  -103.5661-103.2063-103.1794-103.1717-103.1712-102.7914 -68.8095 -68.7674
   -68.6441 -68.2122 -64.0817 -63.9999 -63.9194 -63.7825 -63.7692 -63.7627
   -63.7300 -63.6215 -63.6089 -63.5725 -63.5504 -63.4798 -63.4516 -63.4255
   -63.4038 -63.2774 -63.2495 -63.0911 -35.2541 -35.2331 -35.2085 -35.1999
   -35.1927 -35.1640 -35.1627 -35.0690 -35.0396 -34.8369 -34.7909 -34.7407
   -13.9344 -12.8739 -12.4801 -12.0642 -11.9001 -11.7546 -11.4753 -11.3982
   -11.2523 -11.0956  -6.7684  -5.9978  -5.7744  -5.4965  -5.3671  -5.1434
    -5.0284  -4.6945  -4.5181  -4.3624  -4.2905  -3.9783  -3.8832  -3.7103
    -3.6161  -3.5165  -3.4396  -3.3483  -3.2824  -3.2699  -3.1951  -3.1097
    -3.0067  -2.9442  -2.8216  -2.6356  -2.5956  -2.5625  -2.4327  -2.4075
    -2.2446  -2.1910  -2.1449  -2.1239  -2.0948  -1.9749  -1.8732  -1.8157
    -1.7114  -1.6816  -1.5385  -1.5299  -1.4013  -1.3845  -1.3584  -1.2524
    -1.2002  -1.1140  -1.0651  -0.9516  -0.8493  -0.7979  -0.6837  -0.6377
    -0.5165  -0.3849  -0.3091  -0.2595  -0.0545   0.0415   0.1059   0.4293
     0.6000   0.6376   0.7301   1.0873   1.3726   1.5097   1.5213   1.6619
     1.7192   1.9965   2.0189   2.0725   2.4249   2.5016   2.5998   2.8209
     2.8974   3.0500   3.1101   3.2889

          k =-0.5000 0.4275 0.0000 ( 85368 PWs)   bands (ev):

  -103.5661-103.2063-103.1792-103.1717-103.1713-102.7914 -68.8094 -68.7673
   -68.6441 -68.2122 -64.0819 -63.9999 -63.9194 -63.7826 -63.7693 -63.7628
   -63.7301 -63.6209 -63.6085 -63.5740 -63.5518 -63.4793 -63.4507 -63.4258
   -63.4038 -63.2775 -63.2495 -63.0913 -35.2550 -35.2349 -35.2109 -35.1997
   -35.1932 -35.1662 -35.1638 -35.0686 -35.0392 -34.8364 -34.7947 -34.7403
   -13.8851 -12.8110 -12.4081 -11.9998 -11.8414 -11.7197 -11.4400 -11.3679
   -11.2272 -11.0775  -6.6896  -5.9382  -5.7160  -5.4495  -5.3213  -5.1021
    -4.9696  -4.6639  -4.4956  -4.4525  -4.3314  -3.9464  -3.8930  -3.8027
    -3.6775  -3.6197  -3.4188  -3.4061  -3.3576  -3.3105  -3.2586  -3.1718
    -3.0914  -3.0028  -2.8887  -2.7858  -2.6737  -2.5960  -2.5224  -2.4605
    -2.4285  -2.3635  -2.2215  -2.1297  -2.0593  -2.0284  -1.9622  -1.9084
    -1.7736  -1.7295  -1.6057  -1.5735  -1.4824  -1.4269  -1.3922  -1.3217
    -1.2226  -1.1571  -1.0725  -0.9710  -0.8960  -0.7976  -0.7288  -0.6405
    -0.5680  -0.4890  -0.3319  -0.2327  -0.0037   0.0896   0.2638   0.3870
     0.5579   0.7358   0.8293   1.1406   1.3185   1.3467   1.4692   1.5459
     1.6363   1.8983   1.9553   2.0441   2.2756   2.4045   2.5293   2.6870
     2.7309   2.9939   3.1314   3.5280

          k =-0.5000 0.8549 0.0000 ( 85450 PWs)   bands (ev):

  -103.5661-103.2062-103.1788-103.1718-103.1718-102.7914 -68.8093 -68.7672
   -68.6439 -68.2122 -64.0822 -63.9999 -63.9193 -63.7827 -63.7694 -63.7629
   -63.7301 -63.6190 -63.6071 -63.5777 -63.5552 -63.4779 -63.4481 -63.4269
   -63.4038 -63.2775 -63.2495 -63.0917 -35.2592 -35.2383 -35.2182 -35.1991
   -35.1935 -35.1755 -35.1630 -35.0673 -35.0382 -34.8351 -34.8048 -34.7391
   -13.7539 -12.6262 -12.2025 -11.8208 -11.6824 -11.6221 -11.3481 -11.2900
   -11.1609 -11.0382  -6.4895  -5.7883  -5.5929  -5.3738  -5.2207  -5.0881
    -4.8626  -4.7701  -4.6627  -4.3374  -4.2907  -4.2199  -4.0779  -3.9975
    -3.8945  -3.8527  -3.6932  -3.5474  -3.5090  -3.4405  -3.3811  -3.2718
    -3.1357  -3.1218  -3.0245  -2.8780  -2.8408  -2.7138  -2.6603  -2.6007
    -2.5488  -2.4955  -2.4145  -2.2503  -2.1264  -2.0758  -2.0391  -1.9809
    -1.8830  -1.8497  -1.7398  -1.6371  -1.5523  -1.5113  -1.4575  -1.3836
    -1.3198  -1.2656  -1.2309  -1.1759  -0.9720  -0.8804  -0.8245  -0.7784
    -0.7277  -0.5268  -0.4129  -0.3078  -0.1285   0.1799   0.2658   0.5752
     0.6965   0.8403   0.8707   1.0608   1.1888   1.3357   1.3652   1.5078
     1.5204   1.7777   1.8424   2.0663   2.1802   2.3934   2.4963   2.5470
     2.6977   3.1682   3.4801   3.7821

          k =-0.5000 1.2824 0.0000 ( 85648 PWs)   bands (ev):

  -103.5661-103.2061-103.1781-103.1724-103.1719-102.7914 -68.8091 -68.7670
   -68.6437 -68.2122 -64.0827 -64.0000 -63.9191 -63.7829 -63.7697 -63.7632
   -63.7303 -63.6160 -63.6051 -63.5828 -63.5596 -63.4764 -63.4448 -63.4287
   -63.4040 -63.2776 -63.2496 -63.0920 -35.2671 -35.2400 -35.2283 -35.1982
   -35.1931 -35.1870 -35.1619 -35.0659 -35.0369 -34.8336 -34.8172 -34.7374
   -13.5873 -12.3349 -11.8995 -11.5746 -11.5078 -11.4541 -11.2373 -11.2123
   -11.0819 -11.0101  -6.3149  -5.7629  -5.6073  -5.4068  -5.3360  -5.2468
    -5.0419  -4.9539  -4.7686  -4.6021  -4.3153  -4.2798  -4.1731  -4.1255
    -4.0548  -3.9542  -3.7965  -3.6798  -3.6415  -3.5492  -3.4553  -3.3530
    -3.2235  -3.1408  -3.0279  -2.9675  -2.9070  -2.8159  -2.7260  -2.6882
    -2.5643  -2.5395  -2.4349  -2.3552  -2.2558  -2.2128  -2.1107  -2.0510
    -1.9436  -1.9073  -1.8460  -1.8008  -1.7097  -1.5766  -1.5042  -1.4701
    -1.4255  -1.3714  -1.2982  -1.2759  -1.1788  -0.9707  -0.9187  -0.8959
    -0.8489  -0.6370  -0.5869  -0.4975  -0.4366  -0.0314   0.1275   0.5207
     0.7085   1.0716   1.0997   1.2302   1.2497   1.2892   1.3375   1.6009
     1.6607   1.8201   2.0084   2.1468   2.3071   2.4656   2.6121   2.6476
     2.8690   2.9865   3.1544   3.5333

          k =-0.5000 1.7098 0.0000 ( 85606 PWs)   bands (ev):

  -103.5661-103.2060-103.1775-103.1731-103.1720-102.7914 -68.8089 -68.7669
   -68.6436 -68.2123 -64.0829 -63.9999 -63.9187 -63.7829 -63.7698 -63.7632
   -63.7303 -63.6125 -63.6029 -63.5876 -63.5632 -63.4751 -63.4414 -63.4307
   -63.4039 -63.2775 -63.2496 -63.0922 -35.2747 -35.2401 -35.2368 -35.1980
   -35.1957 -35.1925 -35.1609 -35.0647 -35.0359 -34.8334 -34.8263 -34.7360
   -13.4491 -11.9803 -11.5790 -11.3817 -11.3514 -11.3005 -11.2386 -11.1577
   -11.0359 -10.9752  -6.3739  -6.0372  -5.9640  -5.6760  -5.5360  -5.2425
    -5.2161  -5.1031  -4.7978  -4.6114  -4.4724  -4.4347  -4.1829  -4.1328
    -3.9243  -3.8657  -3.7405  -3.6732  -3.5883  -3.4890  -3.4151  -3.2488
    -3.1993  -3.1862  -3.1196  -3.0924  -2.9647  -2.8425  -2.7972  -2.7547
    -2.5965  -2.5241  -2.4893  -2.3877  -2.2970  -2.2532  -2.1667  -2.0733
    -2.0304  -1.9473  -1.9103  -1.8307  -1.8198  -1.7002  -1.5663  -1.5483
    -1.4972  -1.4535  -1.3506  -1.3199  -1.2447  -1.1676  -1.0824  -0.9733
    -0.9162  -0.8040  -0.7503  -0.6742  -0.5290  -0.1596  -0.0078   0.4098
     0.5600   1.1065   1.1707   1.3773   1.4489   1.4966   1.5540   1.6860
     1.7790   1.8583   1.9773   2.1997   2.3361   2.5734   2.6113   2.8810
     2.9070   3.0009   3.1428   3.2176

          k =-0.5000-2.1373 0.0000 ( 85660 PWs)   bands (ev):

  -103.5661-103.2059-103.1771-103.1734-103.1721-102.7914 -68.8089 -68.7668
   -68.6435 -68.2123 -64.0831 -63.9999 -63.9187 -63.7830 -63.7699 -63.7633
   -63.7304 -63.6108 -63.6021 -63.5899 -63.5648 -63.4746 -63.4396 -63.4319
   -63.4039 -63.2775 -63.2495 -63.0923 -35.2777 -35.2401 -35.2400 -35.2003
   -35.1966 -35.1922 -35.1605 -35.0642 -35.0355 -34.8347 -34.8284 -34.7355
   -13.3955 -11.7331 -11.4309 -11.4007 -11.2891 -11.2579 -11.2249 -11.1608
   -11.0268 -10.9421  -6.4512  -6.2289  -6.1273  -5.7727  -5.6438  -5.3008
    -5.2824  -5.1542  -4.7054  -4.6587  -4.5813  -4.3721  -4.2596  -3.9687
    -3.8637  -3.7886  -3.6964  -3.6231  -3.5905  -3.4434  -3.3415  -3.3063
    -3.2471  -3.2065  -3.1739  -3.0627  -2.9707  -2.9171  -2.8122  -2.7182
    -2.6047  -2.5833  -2.4937  -2.3490  -2.3036  -2.2442  -2.1725  -2.0939
    -2.0335  -2.0098  -1.9635  -1.8572  -1.8313  -1.6904  -1.5908  -1.5700
    -1.5386  -1.5013  -1.3869  -1.3543  -1.2708  -1.2024  -1.1631  -1.0203
    -0.9651  -0.8518  -0.8389  -0.7035  -0.5590  -0.2047  -0.0242   0.3762
     0.4836   1.1102   1.1601   1.2970   1.4944   1.5203   1.5626   1.7433
     1.8850   1.9767   2.0952   2.1992   2.2462   2.4781   2.7595   2.8097
     2.8855   2.9745   3.2407   3.3931

     the Fermi energy is     0.0897 ev

!    total energy              =   -9109.55910621 Ry
     total all-electron energy =     -9109.559106 Ry
     estimated scf accuracy    <          6.7E-09 Ry
     smearing contrib. (-TS)   =      -0.00031709 Ry
     internal energy E=F+TS    =   -9109.55878912 Ry

     The total energy is F=E-TS. E is the sum of the following terms:
     one-electron contribution =  -16394.63978192 Ry
     hartree contribution      =    8056.22883135 Ry
     xc contribution           =    -365.00564931 Ry
     ewald contribution        =    5861.52437438 Ry
     one-center paw contrib.   =   -6267.66656362 Ry

     convergence has been achieved in  28 iterations

     negative rho (up, down):  6.417E-02 0.000E+00

     Forces acting on atoms (cartesian axes, Ry/au):

     atom    1 type  1   force =    -0.09719499   -0.05042734    0.05801006
     atom    2 type  1   force =    -0.00469399    0.01893222   -0.01465596
     atom    3 type  1   force =     0.01458085   -0.02574428   -0.00067153
     atom    4 type  1   force =     0.00227901    0.02068541   -0.01706418
     atom    5 type  2   force =    -0.00939228   -0.02488905   -0.00889175
     atom    6 type  2   force =     0.01882429    0.02557569   -0.01608133
     atom    7 type  2   force =    -0.00332554   -0.02488978    0.00561448
     atom    8 type  2   force =    -0.04448360    0.02955823    0.00320821
     atom    9 type  2   force =    -0.00062581   -0.01070650    0.01014584
     atom   10 type  2   force =     0.14101264    0.02568281   -0.11493523
     atom   11 type  3   force =    -0.06796508    0.02141586    0.01716061
     atom   12 type  3   force =    -0.00775988   -0.01557542   -0.02001373
     atom   13 type  3   force =     0.00026643   -0.01089687    0.01821239
     atom   14 type  3   force =     0.13619419    0.01216321   -0.00690134
     atom   15 type  3   force =     0.01013359    0.01734872    0.02485745
     atom   16 type  3   force =     0.00135276   -0.01683901   -0.01699014
     atom   17 type  3   force =    -0.00334347   -0.00993501    0.01867348
     atom   18 type  3   force =    -0.19024454    0.01323336    0.14942555
     atom   19 type  3   force =     0.10493146   -0.00532472   -0.07685537
     atom   20 type  3   force =    -0.00054605    0.01063247   -0.01224751

     Total force =     0.400414     Total SCF correction =     0.000413


     Computing stress (Cartesian axis) and pressure


     negative rho (up, down):  6.417E-02 0.000E+00
          total   stress  (Ry/bohr**3)                   (kbar)     P=        2.65
   0.00013135   0.00000326  -0.00004050           19.32        0.48       -5.96
   0.00000326  -0.00007025   0.00001071            0.48      -10.33        1.57
  -0.00004050   0.00001071  -0.00000705           -5.96        1.57       -1.04

     Energy error            =      7.0E-01 Ry
     Gradient error          =      1.9E-01 Ry/Bohr

     number of scf cycles    =   2
     number of bfgs steps    =   1

     energy             old  =   -9108.8622207363 Ry
     energy             new  =   -9109.5591062105 Ry

     CASE: energy            _new < energy            _old

     new trust radius        =       0.2393094840 bohr
     new conv_thr            =       0.0000000100 Ry


ATOMIC_POSITIONS (angstrom)
Ta           15.1848092383        0.8642845557       12.6346959886
Ta            6.5675308400        2.7606812135       12.5799322908
Ta            2.2817423672        0.8932622232       12.4474708431
Ta           11.0897846668        2.7621217760       12.5781630107
Ni           12.8562681278        0.8939791109       11.7562651449
Ni            4.0586523299        2.7662575678       13.2601000813
Ni            4.7899032300        0.8940011172       11.7661063246
Ni           13.5777263491        2.7691257321       13.2749971731
Ni            8.8274412811        0.9060135534       12.3765671943
Ni            0.1609875886        2.7754849686       12.5201853310
Te           14.1522963866        2.7639247186       10.5457411363
Te            5.3859734116        0.9018126739       14.4838673869
Te           10.5966012506        0.9058101615       10.5347504492
Te            1.9068480027        2.7548198556       14.5138556233
Te            3.4499245065        2.7591922679       10.5552314075
Te           12.2665345663        0.9009850399       14.4861760276
Te            7.0586826497        0.9066350873       10.5349618299
Te           15.6826020868        2.7566287682       14.7000527723
Te            0.2064443857        0.9083408239       10.6210404938
Te            8.8278090979        2.7535712389       14.1880904906



     Writing config-only to output data dir /ddn/data/physics/eamoujaes/2D-Ta2Ni3Te5/ELASTIC/C12/OUT/ta2ni3te5.save/
     NEW-OLD atomic charge density approx. for the potential

     negative rho (up, down):  6.452E-02 0.000E+00

     total cpu time spent up to now is     1517.9 secs

     Self-consistent Calculation

     iteration #  1     ecut=    60.00 Ry     beta= 0.20
     Davidson diagonalization with overlap
     ethr =  1.00E-06,  avg # of iterations = 15.7

     negative rho (up, down):  6.435E-02 0.000E+00

     total cpu time spent up to now is     1585.9 secs

     total energy              =   -9109.18874155 Ry
     estimated scf accuracy    <       1.36327252 Ry

     iteration #  2     ecut=    60.00 Ry     beta= 0.20
     Davidson diagonalization with overlap
     ethr =  6.20E-04,  avg # of iterations =  2.8

     negative rho (up, down):  6.440E-02 0.000E+00

     total cpu time spent up to now is     1618.3 secs

     total energy              =   -9108.18435398 Ry
     estimated scf accuracy    <      43.10793286 Ry

     iteration #  3     ecut=    60.00 Ry     beta= 0.20
     Davidson diagonalization with overlap
     ethr =  6.20E-04,  avg # of iterations =  2.6

     negative rho (up, down):  6.441E-02 0.000E+00

     total cpu time spent up to now is     1635.6 secs

     total energy              =   -9109.66499784 Ry
     estimated scf accuracy    <       1.04972211 Ry

     iteration #  4     ecut=    60.00 Ry     beta= 0.20
     Davidson diagonalization with overlap
     ethr =  4.77E-04,  avg # of iterations =  1.0

     negative rho (up, down):  6.440E-02 0.000E+00

     total cpu time spent up to now is     1659.0 secs

     total energy              =   -9109.68785536 Ry
     estimated scf accuracy    <       0.18567732 Ry

     iteration #  5     ecut=    60.00 Ry     beta= 0.20
     Davidson diagonalization with overlap
     ethr =  8.44E-05,  avg # of iterations =  2.0

     negative rho (up, down):  6.436E-02 0.000E+00

     total cpu time spent up to now is     1680.4 secs

     total energy              =   -9109.67942621 Ry
     estimated scf accuracy    <       0.06939219 Ry

     iteration #  6     ecut=    60.00 Ry     beta= 0.20
     Davidson diagonalization with overlap
     ethr =  3.15E-05,  avg # of iterations =  2.0

     negative rho (up, down):  6.434E-02 0.000E+00

     total cpu time spent up to now is     1696.5 secs

     total energy              =   -9109.68133132 Ry
     estimated scf accuracy    <       0.01747086 Ry

     iteration #  7     ecut=    60.00 Ry     beta= 0.20
     Davidson diagonalization with overlap
     ethr =  7.94E-06,  avg # of iterations =  2.0

     negative rho (up, down):  6.432E-02 0.000E+00

     total cpu time spent up to now is     1712.7 secs

     total energy              =   -9109.68043635 Ry
     estimated scf accuracy    <       0.02137819 Ry

     iteration #  8     ecut=    60.00 Ry     beta= 0.20
     Davidson diagonalization with overlap
     ethr =  7.94E-06,  avg # of iterations =  1.0

     negative rho (up, down):  6.427E-02 0.000E+00

     total cpu time spent up to now is     1730.7 secs

     total energy              =   -9109.67438282 Ry
     estimated scf accuracy    <       0.01822426 Ry

     iteration #  9     ecut=    60.00 Ry     beta= 0.20
     Davidson diagonalization with overlap
     ethr =  7.94E-06,  avg # of iterations =  1.0

     negative rho (up, down):  6.419E-02 0.000E+00

     total cpu time spent up to now is     1745.7 secs

     total energy              =   -9109.66853643 Ry
     estimated scf accuracy    <       0.00833106 Ry

     iteration # 10     ecut=    60.00 Ry     beta= 0.20
     Davidson diagonalization with overlap
     ethr =  3.79E-06,  avg # of iterations =  2.0

     negative rho (up, down):  6.416E-02 0.000E+00

     total cpu time spent up to now is     1761.8 secs

     total energy              =   -9109.66687132 Ry
     estimated scf accuracy    <       0.00583086 Ry

     iteration # 11     ecut=    60.00 Ry     beta= 0.20
     Davidson diagonalization with overlap
     ethr =  2.65E-06,  avg # of iterations =  3.5

     negative rho (up, down):  6.414E-02 0.000E+00

     total cpu time spent up to now is     1779.3 secs

     total energy              =   -9109.66621040 Ry
     estimated scf accuracy    <       0.01694331 Ry

     iteration # 12     ecut=    60.00 Ry     beta= 0.20
     Davidson diagonalization with overlap
     ethr =  2.65E-06,  avg # of iterations =  1.2

     negative rho (up, down):  6.412E-02 0.000E+00

     total cpu time spent up to now is     1794.9 secs

     total energy              =   -9109.66555517 Ry
     estimated scf accuracy    <       0.00925166 Ry

     iteration # 13     ecut=    60.00 Ry     beta= 0.20
     Davidson diagonalization with overlap
     ethr =  2.65E-06,  avg # of iterations =  1.0

     negative rho (up, down):  6.401E-02 0.000E+00

     total cpu time spent up to now is     1813.1 secs

     total energy              =   -9109.66328989 Ry
     estimated scf accuracy    <       0.00595322 Ry

     iteration # 14     ecut=    60.00 Ry     beta= 0.20
     Davidson diagonalization with overlap
     ethr =  2.65E-06,  avg # of iterations =  2.0

     negative rho (up, down):  6.403E-02 0.000E+00

     total cpu time spent up to now is     1829.5 secs

     total energy              =   -9109.66381408 Ry
     estimated scf accuracy    <       0.00051613 Ry

     iteration # 15     ecut=    60.00 Ry     beta= 0.20
     Davidson diagonalization with overlap
     ethr =  2.35E-07,  avg # of iterations =  1.3

     negative rho (up, down):  6.404E-02 0.000E+00

     total cpu time spent up to now is     1849.1 secs

     total energy              =   -9109.66384923 Ry
     estimated scf accuracy    <       0.00007749 Ry

     iteration # 16     ecut=    60.00 Ry     beta= 0.20
     Davidson diagonalization with overlap
     ethr =  3.52E-08,  avg # of iterations =  2.1

     negative rho (up, down):  6.404E-02 0.000E+00

     total cpu time spent up to now is     1865.5 secs

     total energy              =   -9109.66384958 Ry
     estimated scf accuracy    <       0.00006515 Ry

     iteration # 17     ecut=    60.00 Ry     beta= 0.20
     Davidson diagonalization with overlap
     ethr =  2.96E-08,  avg # of iterations =  1.0

     negative rho (up, down):  6.403E-02 0.000E+00

     total cpu time spent up to now is     1880.8 secs

     total energy              =   -9109.66384485 Ry
     estimated scf accuracy    <       0.00008755 Ry

     iteration # 18     ecut=    60.00 Ry     beta= 0.20
     Davidson diagonalization with overlap
     ethr =  2.96E-08,  avg # of iterations =  2.0

     negative rho (up, down):  6.403E-02 0.000E+00

     total cpu time spent up to now is     1896.9 secs

     total energy              =   -9109.66385266 Ry
     estimated scf accuracy    <       0.00002717 Ry

     iteration # 19     ecut=    60.00 Ry     beta= 0.20
     Davidson diagonalization with overlap
     ethr =  1.24E-08,  avg # of iterations =  2.0

     negative rho (up, down):  6.403E-02 0.000E+00

     total cpu time spent up to now is     1913.0 secs

     total energy              =   -9109.66384809 Ry
     estimated scf accuracy    <       0.00001660 Ry

     iteration # 20     ecut=    60.00 Ry     beta= 0.20
     Davidson diagonalization with overlap
     ethr =  7.55E-09,  avg # of iterations =  2.0

     negative rho (up, down):  6.403E-02 0.000E+00

     total cpu time spent up to now is     1929.3 secs

     total energy              =   -9109.66384917 Ry
     estimated scf accuracy    <       0.00000254 Ry

     iteration # 21     ecut=    60.00 Ry     beta= 0.20
     Davidson diagonalization with overlap
     ethr =  1.15E-09,  avg # of iterations =  2.2

     negative rho (up, down):  6.403E-02 0.000E+00

     total cpu time spent up to now is     1945.6 secs

     total energy              =   -9109.66384919 Ry
     estimated scf accuracy    <       0.00000445 Ry

     iteration # 22     ecut=    60.00 Ry     beta= 0.20
     Davidson diagonalization with overlap
     ethr =  1.15E-09,  avg # of iterations =  2.0

     negative rho (up, down):  6.403E-02 0.000E+00

     total cpu time spent up to now is     1963.3 secs

     total energy              =   -9109.66384927 Ry
     estimated scf accuracy    <       0.00000149 Ry

     iteration # 23     ecut=    60.00 Ry     beta= 0.20
     Davidson diagonalization with overlap
     ethr =  6.79E-10,  avg # of iterations =  2.0

     negative rho (up, down):  6.403E-02 0.000E+00

     total cpu time spent up to now is     1983.7 secs

     total energy              =   -9109.66384924 Ry
     estimated scf accuracy    <       0.00000038 Ry

     iteration # 24     ecut=    60.00 Ry     beta= 0.20
     Davidson diagonalization with overlap
     ethr =  1.74E-10,  avg # of iterations =  1.1

     negative rho (up, down):  6.403E-02 0.000E+00

     total cpu time spent up to now is     1999.1 secs

     total energy              =   -9109.66384922 Ry
     estimated scf accuracy    <       0.00000021 Ry

     iteration # 25     ecut=    60.00 Ry     beta= 0.20
     Davidson diagonalization with overlap
     ethr =  9.59E-11,  avg # of iterations =  2.0

     negative rho (up, down):  6.403E-02 0.000E+00

     total cpu time spent up to now is     2015.3 secs

     total energy              =   -9109.66384923 Ry
     estimated scf accuracy    <       0.00000027 Ry

     iteration # 26     ecut=    60.00 Ry     beta= 0.20
[...]
   -63.3726 -63.3706 -63.3129 -63.3104 -35.2267 -35.2250 -35.2239 -35.2222
   -35.1877 -35.1863 -35.1856 -35.1836 -35.1422 -35.1371 -35.1353 -35.1302
   -12.6711 -12.3124 -12.2579 -11.9568 -11.7545 -11.7342 -11.4612 -11.4583
   -11.3508 -11.2177  -5.9527  -5.6228  -5.5032  -5.4350  -5.2475  -5.1771
    -5.0540  -4.7980  -4.6389  -4.3564  -4.3037  -4.1986  -4.0931  -4.0221
    -3.9523  -3.9398  -3.8991  -3.8456  -3.7210  -3.6006  -3.4307  -3.2823
    -3.2086  -3.1933  -3.0720  -3.0436  -3.0067  -2.7334  -2.6705  -2.6016
    -2.5813  -2.4850  -2.3658  -2.3497  -2.2300  -2.1050  -2.0272  -2.0220
    -1.9904  -1.9240  -1.8388  -1.7055  -1.6964  -1.6297  -1.6216  -1.5485
    -1.5130  -1.4292  -1.3612  -1.0785  -0.8889  -0.8858  -0.7813  -0.7743
    -0.7718  -0.5520  -0.4957  -0.4668  -0.3760  -0.3676   0.3814   0.4891
     0.6725   0.9604   1.0019   1.0433   1.2579   1.3301   1.3346   1.3663
     1.8142   1.8351   2.0097   2.0278   2.2357   2.3996   2.4424   2.5404
     2.5973   3.0624   3.6684   3.7735

          k = 0.0000 1.2824 0.0000 ( 85552 PWs)   bands (ev):

  -103.4312-103.4304-103.4199-103.4188-102.9398-102.9376 -68.7222 -68.7216
   -68.7201 -68.7186 -64.0034 -64.0019 -63.9936 -63.9910 -63.8576 -63.8561
   -63.8270 -63.8262 -63.6919 -63.6909 -63.6739 -63.6737 -63.3840 -63.3820
   -63.3726 -63.3705 -63.3132 -63.3107 -35.2252 -35.2235 -35.2223 -35.2207
   -35.1997 -35.1982 -35.1976 -35.1954 -35.1400 -35.1361 -35.1336 -35.1297
   -12.3271 -11.9983 -11.9925 -11.8000 -11.6677 -11.5854 -11.3582 -11.2930
   -11.2765 -11.1643  -5.9463  -5.6441  -5.5985  -5.5383  -5.1817  -5.1736
    -5.1462  -4.9071  -4.7399  -4.6527  -4.4287  -4.3800  -4.2281  -4.1047
    -4.0058  -4.0039  -3.9680  -3.7649  -3.7074  -3.6997  -3.4473  -3.4113
    -3.3901  -3.2640  -3.1677  -3.0213  -3.0054  -2.8962  -2.7412  -2.6939
    -2.6625  -2.6480  -2.4827  -2.3828  -2.2536  -2.1892  -2.1669  -2.1088
    -2.0990  -2.0863  -1.9520  -1.7967  -1.7816  -1.7365  -1.7328  -1.6841
    -1.5853  -1.5460  -1.5351  -1.2281  -1.1191  -1.1009  -0.9323  -0.8730
    -0.8407  -0.8002  -0.7051  -0.5651  -0.5602  -0.4713   0.2590   0.3859
     0.9986   1.0447   1.1271   1.1362   1.1960   1.2599   1.3721   1.4175
     1.7457   1.8617   2.1914   2.2207   2.2404   2.4868   2.5129   2.7469
     2.7904   3.0451   3.4027   3.4135

          k = 0.0000 1.7098 0.0000 ( 85626 PWs)   bands (ev):

  -103.4308-103.4300-103.4203-103.4192-102.9398-102.9376 -68.7221 -68.7215
   -68.7200 -68.7184 -64.0037 -64.0021 -63.9939 -63.9914 -63.8523 -63.8504
   -63.8337 -63.8333 -63.6889 -63.6876 -63.6756 -63.6755 -63.3840 -63.3819
   -63.3727 -63.3707 -63.3134 -63.3109 -35.2239 -35.2222 -35.2210 -35.2195
   -35.2094 -35.2077 -35.2073 -35.2050 -35.1382 -35.1355 -35.1321 -35.1294
   -11.9390 -11.7795 -11.6592 -11.6075 -11.5883 -11.4629 -11.3335 -11.3078
   -11.1373 -11.1263  -6.1473  -6.0581  -5.9820  -5.9754  -5.2533  -5.2477
    -5.1156  -5.0522  -4.8302  -4.6880  -4.4475  -4.2946  -4.2768  -4.0560
    -3.9808  -3.8444  -3.6931  -3.6270  -3.6050  -3.5961  -3.4711  -3.3949
    -3.3502  -3.2951  -3.2211  -3.1501  -3.0393  -2.9181  -2.8884  -2.7808
    -2.6907  -2.6644  -2.5953  -2.5171  -2.3096  -2.2783  -2.2562  -2.1715
    -2.1081  -2.1005  -2.0005  -1.9694  -1.9537  -1.8927  -1.8043  -1.7416
    -1.5482  -1.5450  -1.5408  -1.5204  -1.2697  -1.2139  -1.0805  -1.0678
    -1.0362  -0.9904  -0.9091  -0.6708  -0.6129  -0.5828   0.1859   0.2706
     1.0464   1.0597   1.0947   1.1676   1.3593   1.4176   1.5264   1.6215
     1.7712   1.9169   2.1749   2.1789   2.2256   2.6769   2.7540   2.7952
     3.0087   3.2072   3.2102   3.2586

          k = 0.0000-2.1373 0.0000 ( 85666 PWs)   bands (ev):

  -103.4307-103.4298-103.4205-103.4193-102.9398-102.9376 -68.7220 -68.7214
   -68.7199 -68.7184 -64.0037 -64.0022 -63.9939 -63.9914 -63.8488 -63.8460
   -63.8383 -63.8377 -63.6876 -63.6861 -63.6767 -63.6764 -63.3841 -63.3820
   -63.3727 -63.3707 -63.3135 -63.3110 -35.2234 -35.2217 -35.2205 -35.2190
   -35.2132 -35.2114 -35.2110 -35.2087 -35.1374 -35.1353 -35.1314 -35.1294
   -11.6994 -11.6986 -11.5147 -11.5139 -11.4558 -11.4551 -11.3853 -11.3849
   -11.1077 -11.1061  -6.2184  -6.2176  -6.2047  -6.2045  -5.3638  -5.3632
    -5.0865  -5.0858  -4.8553  -4.8550  -4.2053  -4.2044  -3.9912  -3.9889
    -3.9749  -3.9733  -3.5942  -3.5930  -3.5254  -3.5247  -3.4086  -3.4071
    -3.3141  -3.3127  -3.1699  -3.1689  -3.1057  -3.1031  -2.9238  -2.9215
    -2.6346  -2.6339  -2.5588  -2.5580  -2.3006  -2.2988  -2.2970  -2.2964
    -2.2004  -2.1980  -1.9673  -1.9645  -1.9259  -1.9249  -1.7677  -1.7671
    -1.5874  -1.5855  -1.4862  -1.4859  -1.2876  -1.2870  -1.2334  -1.2331
    -1.1764  -1.1734  -0.8291  -0.8251  -0.5887  -0.5858   0.2098   0.2125
     1.0252   1.0253   1.1983   1.2003   1.3454   1.3476   1.5026   1.5057
     2.0182   2.0221   2.1616   2.1633   2.4367   2.4401   2.7875   2.7895
     3.1038   3.1047   3.3493   3.3502

          k =-0.5000 0.0000 0.0000 ( 85266 PWs)   bands (ev):

  -103.4320-103.4313-103.4189-103.4180-102.9398-102.9376 -68.7226 -68.7221
   -68.7205 -68.7190 -64.0029 -64.0014 -63.9930 -63.9905 -63.8655 -63.8644
   -63.8141 -63.8129 -63.6984 -63.6976 -63.6711 -63.6708 -63.3840 -63.3820
   -63.3725 -63.3705 -63.3122 -63.3097 -35.2284 -35.2269 -35.2254 -35.2239
   -35.1743 -35.1730 -35.1722 -35.1702 -35.1432 -35.1416 -35.1338 -35.1322
   -12.8727 -12.8718 -12.1330 -12.1321 -12.0201 -12.0191 -11.5973 -11.5959
   -11.3359 -11.3347  -6.0805  -6.0781  -5.6552  -5.6537  -5.2823  -5.2769
    -4.9560  -4.9546  -4.5959  -4.5932  -3.9919  -3.9894  -3.8480  -3.8458
    -3.7395  -3.7386  -3.6723  -3.6718  -3.4951  -3.4927  -3.1621  -3.1618
    -3.0325  -3.0243  -2.7905  -2.7861  -2.5570  -2.5557  -2.4089  -2.4052
    -2.3117  -2.3097  -2.2583  -2.2572  -2.0790  -2.0774  -1.8774  -1.8740
    -1.6618  -1.6603  -1.6022  -1.6008  -1.5470  -1.5457  -1.4458  -1.4383
    -1.1972  -1.1953  -0.9869  -0.9800  -0.9237  -0.9209  -0.7171  -0.7087
    -0.4649  -0.4620  -0.4316  -0.4261  -0.1382  -0.1345   0.1507   0.1515
     0.6712   0.6750   1.0506   1.0537   1.4848   1.4889   1.7250   1.7329
     1.7761   1.7789   1.9755   1.9802   2.4758   2.4832   2.9186   2.9247
     3.1179   3.1205   3.2611   3.2654

          k =-0.5000 0.4275 0.0000 ( 85368 PWs)   bands (ev):

  -103.4319-103.4312-103.4191-103.4181-102.9398-102.9376 -68.7226 -68.7220
   -68.7204 -68.7189 -64.0031 -64.0016 -63.9932 -63.9907 -63.8646 -63.8634
   -63.8161 -63.8149 -63.6975 -63.6967 -63.6714 -63.6711 -63.3840 -63.3820
   -63.3726 -63.3706 -63.3124 -63.3100 -35.2280 -35.2264 -35.2249 -35.2235
   -35.1780 -35.1767 -35.1759 -35.1739 -35.1427 -35.1411 -35.1335 -35.1319
   -12.7942 -12.7933 -12.0711 -12.0700 -11.9853 -11.9843 -11.5656 -11.5643
   -11.3105 -11.3094  -6.0092  -6.0070  -5.5873  -5.5858  -5.2355  -5.2302
    -4.9390  -4.9373  -4.5559  -4.5537  -4.0696  -4.0665  -4.0195  -4.0169
    -3.7346  -3.7343  -3.6106  -3.6092  -3.4816  -3.4790  -3.2738  -3.2736
    -3.0465  -3.0415  -2.9152  -2.9123  -2.6389  -2.6376  -2.6231  -2.6217
    -2.3589  -2.3585  -2.2593  -2.2581  -2.1452  -2.1448  -1.9853  -1.9839
    -1.8051  -1.8028  -1.6653  -1.6623  -1.5213  -1.5197  -1.4764  -1.4695
    -1.2765  -1.2730  -1.1064  -1.1046  -0.8753  -0.8736  -0.6215  -0.6174
    -0.5613  -0.5590  -0.5295  -0.5284  -0.0428  -0.0398   0.2054   0.2073
     0.6444   0.6455   1.1432   1.1448   1.4306   1.4345   1.5685   1.5705
     1.7221   1.7255   2.0266   2.0302   2.3679   2.3689   2.6422   2.6477
     2.8077   2.8095   3.4142   3.4161

          k =-0.5000 0.8549 0.0000 ( 85450 PWs)   bands (ev):

  -103.4316-103.4309-103.4194-103.4184-102.9398-102.9376 -68.7224 -68.7218
   -68.7203 -68.7188 -64.0032 -64.0017 -63.9934 -63.9908 -63.8618 -63.8606
   -63.8207 -63.8196 -63.6951 -63.6942 -63.6723 -63.6721 -63.3840 -63.3820
   -63.3726 -63.3706 -63.3128 -63.3103 -35.2267 -35.2251 -35.2237 -35.2222
   -35.1877 -35.1863 -35.1856 -35.1836 -35.1412 -35.1396 -35.1328 -35.1312
   -12.5702 -12.5693 -11.9054 -11.9034 -11.8858 -11.8844 -11.4838 -11.4829
   -11.2449 -11.2439  -5.8394  -5.8378  -5.4198  -5.4182  -5.1719  -5.1691
    -5.0057  -5.0042  -4.5178  -4.5173  -4.2373  -4.2366  -4.2026  -4.1999
    -3.8138  -3.8114  -3.7252  -3.7249  -3.6093  -3.6075  -3.3521  -3.3498
    -3.3401  -3.3361  -3.0090  -3.0085  -2.8772  -2.8734  -2.7191  -2.7185
    -2.4963  -2.4947  -2.4209  -2.4199  -2.1945  -2.1918  -2.0381  -2.0359
    -1.9727  -1.9713  -1.7517  -1.7509  -1.5777  -1.5755  -1.5320  -1.5288
    -1.4888  -1.4876  -1.2653  -1.2623  -1.0560  -1.0551  -0.7457  -0.7423
    -0.6529  -0.6520  -0.4332  -0.4313  -0.2362  -0.2332   0.3738   0.3783
     0.7651   0.7708   1.0464   1.0489   1.3412   1.3435   1.5501   1.5512
     1.6172   1.6223   1.9428   1.9441   2.3801   2.3815   2.4735   2.4773
     2.7661   2.7745   3.7624   3.7664

          k =-0.5000 1.2824 0.0000 ( 85648 PWs)   bands (ev):

  -103.4312-103.4304-103.4199-103.4188-102.9398-102.9376 -68.7222 -68.7216
   -68.7201 -68.7186 -64.0035 -64.0020 -63.9937 -63.9912 -63.8576 -63.8561
   -63.8270 -63.8262 -63.6920 -63.6909 -63.6740 -63.6739 -63.3841 -63.3821
   -63.3727 -63.3707 -63.3132 -63.3107 -35.2252 -35.2236 -35.2222 -35.2207
   -35.1997 -35.1982 -35.1976 -35.1954 -35.1394 -35.1376 -35.1321 -35.1303
   -12.2383 -12.2375 -11.7656 -11.7647 -11.6680 -11.6674 -11.3896 -11.3892
   -11.1720 -11.1709  -5.8280  -5.8273  -5.4575  -5.4552  -5.2635  -5.2623
    -5.1279  -5.1256  -4.5818  -4.5799  -4.4918  -4.4906  -4.1324  -4.1306
    -3.9520  -3.9509  -3.8603  -3.8564  -3.6270  -3.6241  -3.5280  -3.5259
    -3.2625  -3.2606  -3.0529  -3.0509  -3.0064  -3.0050  -2.7909  -2.7906
    -2.5735  -2.5720  -2.5013  -2.4978  -2.2450  -2.2437  -2.1863  -2.1827
    -2.0870  -2.0853  -1.8482  -1.8442  -1.7472  -1.7449  -1.6829  -1.6784
    -1.5497  -1.5482  -1.4854  -1.4808  -1.0760  -1.0756  -0.8849  -0.8821
    -0.7964  -0.7954  -0.6812  -0.6786  -0.4771  -0.4746   0.2985   0.3022
     1.0258   1.0289   1.1501   1.1523   1.2685   1.2698   1.5270   1.5312
     1.7217   1.7223   2.0492   2.0536   2.5079   2.5102   2.6226   2.6248
     2.7707   2.7775   3.4701   3.4745

          k =-0.5000 1.7098 0.0000 ( 85606 PWs)   bands (ev):

  -103.4308-103.4300-103.4203-103.4192-102.9398-102.9376 -68.7221 -68.7215
   -68.7200 -68.7184 -64.0036 -64.0021 -63.9938 -63.9913 -63.8522 -63.8503
   -63.8337 -63.8334 -63.6889 -63.6876 -63.6756 -63.6756 -63.3840 -63.3820
   -63.3726 -63.3706 -63.3134 -63.3109 -35.2239 -35.2223 -35.2210 -35.2195
   -35.2094 -35.2077 -35.2073 -35.2050 -35.1379 -35.1360 -35.1316 -35.1296
   -11.8785 -11.8778 -11.6421 -11.6411 -11.4766 -11.4763 -11.3480 -11.3469
   -11.1279 -11.1264  -6.1840  -6.1831  -5.8350  -5.8336  -5.3051  -5.3042
    -5.1349  -5.1332  -4.7520  -4.7505  -4.4039  -4.4010  -4.1741  -4.1710
    -3.8413  -3.8405  -3.7116  -3.7098  -3.5224  -3.5210  -3.4291  -3.4250
    -3.3295  -3.3274  -3.1553  -3.1532  -3.0119  -3.0101  -2.7968  -2.7951
    -2.7570  -2.7551  -2.4469  -2.4439  -2.3934  -2.3909  -2.2663  -2.2627
    -2.0947  -2.0933  -1.9829  -1.9824  -1.9071  -1.9049  -1.7378  -1.7351
    -1.5631  -1.5612  -1.5305  -1.5290  -1.1839  -1.1813  -1.1458  -1.1438
    -1.0316  -1.0302  -0.8285  -0.8231  -0.5649  -0.5617   0.2215   0.2243
     0.9738   0.9746   1.3558   1.3582   1.4038   1.4056   1.5321   1.5340
     1.8938   1.8961   2.0895   2.0938   2.3419   2.3436   2.8603   2.8632
     3.0099   3.0111   3.1524   3.1559

          k =-0.5000-2.1373 0.0000 ( 85660 PWs)   bands (ev):

  -103.4307-103.4298-103.4205-103.4193-102.9398-102.9376 -68.7220 -68.7214
   -68.7199 -68.7184 -64.0037 -64.0022 -63.9939 -63.9914 -63.8488 -63.8460
   -63.8383 -63.8377 -63.6876 -63.6861 -63.6766 -63.6764 -63.3840 -63.3820
   -63.3727 -63.3707 -63.3135 -63.3110 -35.2234 -35.2217 -35.2205 -35.2190
   -35.2132 -35.2114 -35.2110 -35.2087 -35.1374 -35.1353 -35.1314 -35.1294
   -11.6986 -11.6978 -11.5106 -11.5098 -11.4652 -11.4647 -11.3811 -11.3810
   -11.1069 -11.1053  -6.3707  -6.3705  -5.9868  -5.9860  -5.4268  -5.4266
    -5.0399  -5.0392  -4.9369  -4.9368  -4.1789  -4.1763  -4.1521  -4.1489
    -3.7780  -3.7775  -3.5800  -3.5780  -3.5157  -3.5145  -3.4107  -3.4102
    -3.3406  -3.3404  -3.3209  -3.3201  -2.9257  -2.9247  -2.8844  -2.8828
    -2.6558  -2.6548  -2.5558  -2.5542  -2.3848  -2.3831  -2.3304  -2.3274
    -2.1794  -2.1772  -1.9781  -1.9758  -1.8820  -1.8796  -1.7250  -1.7226
    -1.6322  -1.6306  -1.4846  -1.4841  -1.2760  -1.2754  -1.2269  -1.2256
    -1.2216  -1.2200  -0.8293  -0.8251  -0.5996  -0.5967   0.2099   0.2124
     0.9514   0.9516   1.3450   1.3467   1.4019   1.4026   1.5079   1.5100
     2.0302   2.0333   2.1537   2.1572   2.3016   2.3047   2.8792   2.8806
     2.9742   2.9744   3.2809   3.2816

     the Fermi energy is     0.0048 ev

!    total energy              =   -9109.81337752 Ry
     total all-electron energy =     -9109.813378 Ry
     estimated scf accuracy    <          6.7E-11 Ry
     smearing contrib. (-TS)   =      -0.00002509 Ry
     internal energy E=F+TS    =   -9109.81335243 Ry

     The total energy is F=E-TS. E is the sum of the following terms:
     one-electron contribution =  -16401.96650145 Ry
     hartree contribution      =    8059.42197676 Ry
     xc contribution           =    -365.02693306 Ry
     ewald contribution        =    5865.45955998 Ry
     one-center paw contrib.   =   -6267.70145467 Ry

     convergence has been achieved in  17 iterations

     negative rho (up, down):  6.504E-02 0.000E+00

     Forces acting on atoms (cartesian axes, Ry/au):

     atom    1 type  1   force =     0.00088349    0.00017185    0.00035275
     atom    2 type  1   force =    -0.00002867   -0.00011512    0.00000025
     atom    3 type  1   force =    -0.00045039    0.00004002   -0.00001729
     atom    4 type  1   force =    -0.00005864   -0.00025780    0.00008816
     atom    5 type  2   force =    -0.00074493    0.00023666   -0.00014376
     atom    6 type  2   force =     0.00036336   -0.00004749   -0.00004019
     atom    7 type  2   force =     0.00058290    0.00003028    0.00000916
     atom    8 type  2   force =     0.00018461   -0.00022065    0.00046042
     atom    9 type  2   force =     0.00030745    0.00019463    0.00056705
     atom   10 type  2   force =    -0.00053106   -0.00009747   -0.00038156
     atom   11 type  3   force =     0.00000843   -0.00008056   -0.00035476
     atom   12 type  3   force =     0.00038516    0.00009046   -0.00020475
     atom   13 type  3   force =    -0.00065254    0.00006789   -0.00095712
     atom   14 type  3   force =     0.00008618   -0.00000635    0.00036284
     atom   15 type  3   force =    -0.00002029   -0.00002050    0.00003001
     atom   16 type  3   force =    -0.00001441    0.00015105    0.00015137
     atom   17 type  3   force =    -0.00037843    0.00005257    0.00062739
     atom   18 type  3   force =     0.00009079   -0.00013003   -0.00030454
     atom   19 type  3   force =    -0.00048865    0.00001923    0.00029973
     atom   20 type  3   force =     0.00047565   -0.00007865   -0.00054517

     Total force =     0.002628     Total SCF correction =     0.000055


     Computing stress (Cartesian axis) and pressure


     negative rho (up, down):  6.504E-02 0.000E+00
          total   stress  (Ry/bohr**3)                   (kbar)     P=        0.77
   0.00012667  -0.00000002   0.00000090           18.63       -0.00        0.13
  -0.00000002  -0.00007214  -0.00000008           -0.00      -10.61       -0.01
   0.00000090  -0.00000008  -0.00003884            0.13       -0.01       -5.71

     Energy error            =      1.7E-05 Ry
     Gradient error          =      9.6E-04 Ry/Bohr

     bfgs converged in  39 scf cycles and  38 bfgs steps
     (criteria: energy <  1.0E-04 Ry, force <  1.0E-03 Ry/Bohr)

     End of BFGS Geometry Optimization

     Final energy             =   -9109.8133775219 Ry

     File /ddn/data/physics/eamoujaes/2D-Ta2Ni3Te5/ELASTIC/C12/OUT/ta2ni3te5.bfgs deleted, as requested
Begin final coordinates

ATOMIC_POSITIONS (angstrom)
Ta           14.9598809472        0.8589806568       12.6949734992
Ta            6.6560050403        2.8007063093       12.3363301496
Ta            2.5984544090        0.8585738160       12.6814102083
Ta           10.8963222807        2.8016537144       12.3605098711
Ni           12.6319894833        0.8587132529       11.7593031118
Ni            4.3259497896        2.8006617701       13.2768544228
Ni            4.9232147397        0.8586495125       11.7295241211
Ni           13.2262611162        2.8015781379       13.3020554837
Ni            8.7713467000        0.8571764775       12.2728894311
Ni            0.4768256451        2.8021681897       12.7634302958
Te           13.9213015386        2.8010425081       10.6806053985
Te            5.6144363610        0.8582350600       14.3542550008
Te           10.4773564939        0.8592268437       10.3616080836
Te            2.1729744275        2.8003861391       14.6809808915
Te            3.6291106721        2.8006189787       10.6568841884
Te           11.9299889091        0.8589146763       14.3776840936
Te            7.0880681415        0.8582766471       10.3379415908
Te           15.3880147374        2.8015980554       14.6937441872
Te            0.4741992290        0.8596321758       10.9710850235
Te            8.7668617020        2.8001395326       14.0661819474
End final coordinates



     Writing all to output data dir /ddn/data/physics/eamoujaes/2D-Ta2Ni3Te5/ELASTIC/C12/OUT/ta2ni3te5.save/
 
     init_run     :     87.28s CPU     43.00s WALL (       1 calls)
     electrons    :  42589.40s CPU  15855.44s WALL (      39 calls)
     update_pot   :   2101.19s CPU    710.96s WALL (      38 calls)
     forces       :   1872.78s CPU    637.07s WALL (      39 calls)
     stress       :   4457.31s CPU   1510.96s WALL (      39 calls)

     Called by init_run:
     wfcinit      :     22.82s CPU      8.18s WALL (       1 calls)
     potinit      :     18.76s CPU      6.43s WALL (       1 calls)
     hinit0       :     35.25s CPU     19.44s WALL (       1 calls)

     Called by electrons:
     c_bands      :  30580.55s CPU  10751.09s WALL (     866 calls)
     sum_band     :   7203.89s CPU   2588.12s WALL (     866 calls)
     v_of_rho     :   2242.03s CPU    850.10s WALL (     902 calls)
     newd         :   1223.80s CPU    522.53s WALL (     902 calls)
     PAW_pot      :    585.21s CPU    208.17s WALL (     940 calls)
     mix_rho      :    562.34s CPU    214.46s WALL (     866 calls)

     Called by c_bands:
     init_us_2    :    280.33s CPU     94.51s WALL (    3698 calls)
     init_us_2:cp :    280.21s CPU     94.48s WALL (    3698 calls)
     cegterg      :  28712.77s CPU   9853.05s WALL (    1732 calls)

     Called by *egterg:
     cdiaghg      :    348.19s CPU    120.26s WALL (    5986 calls)
     h_psi        :  19544.65s CPU   6715.81s WALL (    6070 calls)
     s_psi        :   1686.63s CPU    562.63s WALL (    6070 calls)
     g_psi        :     77.84s CPU     26.02s WALL (    4336 calls)

     Called by h_psi:
     h_psi:calbec :   1753.93s CPU    586.54s WALL (    6070 calls)
     vloc_psi     :  15970.60s CPU   5500.89s WALL (    6070 calls)
     add_vuspsi   :   1692.02s CPU    564.77s WALL (    6070 calls)

     General routines
     calbec       :   2705.14s CPU    904.69s WALL (    8268 calls)
     fft          :   1755.66s CPU    652.30s WALL (   12664 calls)
     ffts         :     52.06s CPU     18.74s WALL (    1768 calls)
     fftw         :  14323.18s CPU   4990.28s WALL ( 1267406 calls)
     interpolate  :    171.93s CPU     67.40s WALL (     902 calls)
 
     Parallel routines
 
     PWSCF        :     14h17m CPU      5h20m WALL

 
   This run was terminated on:  10:47: 7  31Jul2024            

=------------------------------------------------------------------------------=
   JOB DONE.
=------------------------------------------------------------------------------=
