
     Program PWSCF v.7.1 starts on 31Jul2024 at 10:47:29 

     This program is part of the open-source Quantum ESPRESSO suite
     for quantum simulation of materials; please cite
         "P. Giannozzi et al., J. Phys.:Condens. Matter 21 395502 (2009);
         "P. Giannozzi et al., J. Phys.:Condens. Matter 29 465901 (2017);
         "P. Giannozzi et al., J. Chem. Phys. 152 154105 (2020);
          URL http://www.quantum-espresso.org", 
     in publications or presentations arising from this work. More details at
     http://www.quantum-espresso.org/quote

     Parallel version (MPI & OpenMP), running on      72 processor cores
     Number of MPI processes:                24
     Threads/MPI process:                     3

     MPI processes distributed on     3 nodes
     28481 MiB available memory on the printing compute node when the environment starts
 
     Waiting for input...
     Reading input from standard input
Warning: card &CELL ignored
Warning: card CELL_DYNAMICS='BFGS' ignored
Warning: card PRESS=0.0 ignored
Warning: card CELL_DOFREE='2DXY' ignored
Warning: card / ignored

     Current dimensions of program PWSCF are:
     Max number of different atomic species (ntypx) = 10
     Max number of k-points (npk) =  40000
     Max angular momentum in pseudopotentials (lmaxx) =  4
     Message from routine read_pp_mesh:
     mismatch in mesh size, discarding the one in header
     Message from routine read_pp_mesh:
     mismatch in mesh size, discarding the one in header
     Message from routine read_pp_mesh:
     mismatch in mesh size, discarding the one in header
 
     K-points division:     npool     =       8
     R & G space division:  proc/nbgrp/npool/nimage =       3
     Subspace diagonalization in iterative solution of the eigenvalue problem:
     a serial algorithm will be used

 
     Parallelization info
     --------------------
     sticks:   dense  smooth     PW     G-vecs:    dense   smooth      PW
     Min        2936    1465    411               645210   228197   33789
     Max        2937    1465    411               645213   228199   33795
     Sum        8809    4395   1233              1935633   684595  101379
 
     Using Slab Decomposition
 


     bravais-lattice index     =            0
     lattice parameter (alat)  =      32.0195  a.u.
     unit-cell volume          =   10901.0288 (a.u.)^3
     number of atoms/cell      =           20
     number of atomic types    =            3
     number of electrons       =       220.00
     number of Kohn-Sham states=          132
     kinetic-energy cutoff     =      60.0000  Ry
     charge density cutoff     =     480.0000  Ry
     scf convergence threshold =      1.0E-08
     mixing beta               =       0.2000
     number of iterations used =            8  plain     mixing
     energy convergence thresh.=      1.0E-04
     force convergence thresh. =      1.0E-03
     Exchange-correlation= SLA PW PBX PBC
                           (   1   4   3   4   0   0   0)
     nstep                     =         2000


     celldm(1)=  32.019519  celldm(2)=   0.000000  celldm(3)=   0.000000
     celldm(4)=   0.000000  celldm(5)=   0.000000  celldm(6)=   0.000000

     crystal axes: (cart. coord. in units of alat)
               a(1) = (   1.000000   0.000000   0.000000 )  
               a(2) = (   0.000000   0.224740   0.000000 )  
               a(3) = (   0.000000   0.000000   1.477550 )  

     reciprocal axes: (cart. coord. in units 2 pi/alat)
               b(1) = (  1.000000  0.000000  0.000000 )  
               b(2) = (  0.000000  4.449580  0.000000 )  
               b(3) = (  0.000000  0.000000  0.676796 )  


     PseudoPot. # 1 for Ta read from file:
     /ddn/data/physics/eamoujaes/PSEUDO-CREATED/Ta.upf
     MD5 check sum: d865b2c2c09566b116f2b8decb2c153d
     Pseudo is Projector augmented-wave + core cor, Zval = 13.0
     Generated using ATOMPAW code
     Shape of augmentation charge: SINC**2
     Using radial grid of 2342 points,  6 beta functions with: 
                l(1) =   0
                l(2) =   0
                l(3) =   1
                l(4) =   1
                l(5) =   2
                l(6) =   2
     Q(r) pseudized with 0 coefficients 


     PseudoPot. # 2 for Ni read from file:
     /ddn/data/physics/eamoujaes/PSEUDO-CREATED/Ni.upf
     MD5 check sum: 85a2a5d9d38f4289a1cc30d5adb66a03
     Pseudo is Projector augmented-wave + core cor, Zval = 18.0
     Generated using ATOMPAW code
     Shape of augmentation charge: SINC**2
     Using radial grid of 2342 points,  6 beta functions with: 
                l(1) =   0
                l(2) =   0
                l(3) =   1
                l(4) =   1
                l(5) =   2
                l(6) =   2
     Q(r) pseudized with 0 coefficients 


     PseudoPot. # 3 for Te read from file:
     /ddn/data/physics/eamoujaes/PSEUDO-CREATED/Te.upf
     MD5 check sum: 8d958f193a7511a138982c2e72838810
     Pseudo is Projector augmented-wave + core cor, Zval =  6.0
     Generated using ATOMPAW code
     Shape of augmentation charge: SINC**2
     Using radial grid of 2342 points,  4 beta functions with: 
                l(1) =   0
                l(2) =   0
                l(3) =   1
                l(4) =   1
     Q(r) pseudized with 0 coefficients 


     atomic species   valence    mass     pseudopotential
        Ta            13.00   180.94790     Ta( 1.00)
        Ni            18.00    58.69340     Ni( 1.00)
        Te             6.00   127.60000     Te( 1.00)

     No symmetry found



   Cartesian axes

     site n.     atom                  positions (alat units)
         1           Ta  tau(   1) = (   0.9083948   0.0539969   0.7344098  )
         2           Ta  tau(   2) = (   0.3878394   0.1619907   0.7431537  )
         3           Ta  tau(   3) = (   0.1336848   0.0539969   0.7343995  )
         4           Ta  tau(   4) = (   0.6542406   0.1619907   0.7431632  )
         5           Ni  tau(   5) = (   0.7592309   0.0539969   0.6941507  )
         6           Ni  tau(   6) = (   0.2386745   0.1619907   0.7834127  )
         7           Ni  tau(   7) = (   0.2828415   0.0539969   0.6941350  )
         8           Ni  tau(   8) = (   0.8033971   0.1619907   0.7834278  )
         9           Ni  tau(   9) = (   0.5210308   0.0539969   0.7299460  )
        10           Ni  tau(  10) = (   0.0004767   0.1619907   0.7476163  )
        11           Te  tau(  11) = (   0.8388245   0.1619907   0.6217692  )
        12           Te  tau(  12) = (   0.3182673   0.0539969   0.8557939  )
        13           Te  tau(  13) = (   0.6253207   0.0539969   0.6208294  )
        14           Te  tau(  14) = (   0.1047657   0.1619907   0.8567336  )
        15           Te  tau(  15) = (   0.2032394   0.1619907   0.6217560  )
        16           Te  tau(  16) = (   0.7237954   0.0539969   0.8558069  )
        17           Te  tau(  17) = (   0.4167622   0.0539969   0.6208198  )
        18           Te  tau(  18) = (   0.9373172   0.1619907   0.8567438  )
        19           Te  tau(  19) = (   0.0004898   0.0539969   0.6396140  )
        20           Te  tau(  20) = (   0.5210433   0.1619907   0.8379472  )

     number of k points=    12  Gaussian smearing, width (Ry)=  0.0020
                       cart. coord. in units 2pi/alat
        k(    1) = (   0.0000000   0.0000000   0.0000000), wk =   0.1000000
        k(    2) = (   0.0000000   0.4449580   0.0000000), wk =   0.2000000
        k(    3) = (   0.0000000   0.8899160   0.0000000), wk =   0.2000000
        k(    4) = (   0.0000000   1.3348739   0.0000000), wk =   0.2000000
        k(    5) = (   0.0000000   1.7798319   0.0000000), wk =   0.2000000
        k(    6) = (   0.0000000  -2.2247899   0.0000000), wk =   0.1000000
        k(    7) = (  -0.5000000   0.0000000   0.0000000), wk =   0.1000000
        k(    8) = (  -0.5000000   0.4449580   0.0000000), wk =   0.2000000
        k(    9) = (  -0.5000000   0.8899160   0.0000000), wk =   0.2000000
        k(   10) = (  -0.5000000   1.3348739   0.0000000), wk =   0.2000000
        k(   11) = (  -0.5000000   1.7798319   0.0000000), wk =   0.2000000
        k(   12) = (  -0.5000000  -2.2247899   0.0000000), wk =   0.1000000

     Dense  grid:  1935633 G-vectors     FFT dimensions: ( 225,  54, 360)

     Smooth grid:   684595 G-vectors     FFT dimensions: ( 160,  36, 240)

     Estimated max dynamical RAM per process >       1.02 GB

     Estimated total dynamical RAM >      21.23 GB

     Initial potential from superposition of free atoms

     starting charge     219.9927, renormalised to     220.0000

     negative rho (up, down):  5.069E-02 0.000E+00
     Starting wfcs are  260 randomized atomic wfcs
     Checking if some PAW data can be deallocated... 

     total cpu time spent up to now is       53.5 secs

     Self-consistent Calculation

     iteration #  1     ecut=    60.00 Ry     beta= 0.20
     Davidson diagonalization with overlap
     ethr =  1.00E-02,  avg # of iterations =  2.8

     negative rho (up, down):  5.133E-02 0.000E+00

     total cpu time spent up to now is       85.9 secs

     total energy              =   -9107.49812497 Ry
     estimated scf accuracy    <       8.19239505 Ry

     iteration #  2     ecut=    60.00 Ry     beta= 0.20
     Davidson diagonalization with overlap
     ethr =  3.72E-03,  avg # of iterations =  2.2

     negative rho (up, down):  5.240E-02 0.000E+00

     total cpu time spent up to now is      101.7 secs

     total energy              =   -9106.65711941 Ry
     estimated scf accuracy    <      28.31385731 Ry

     iteration #  3     ecut=    60.00 Ry     beta= 0.20
     Davidson diagonalization with overlap
     ethr =  3.72E-03,  avg # of iterations =  2.0

     negative rho (up, down):  5.316E-02 0.000E+00

     total cpu time spent up to now is      116.5 secs

     total energy              =   -9108.67314935 Ry
     estimated scf accuracy    <      19.41736639 Ry

     iteration #  4     ecut=    60.00 Ry     beta= 0.20
     Davidson diagonalization with overlap
     ethr =  3.72E-03,  avg # of iterations =  1.0

     negative rho (up, down):  5.421E-02 0.000E+00

     total cpu time spent up to now is      130.3 secs

     total energy              =   -9109.58908767 Ry
     estimated scf accuracy    <       2.53934994 Ry

     iteration #  5     ecut=    60.00 Ry     beta= 0.20
     Davidson diagonalization with overlap
     ethr =  1.15E-03,  avg # of iterations =  1.0

     negative rho (up, down):  5.517E-02 0.000E+00

     total cpu time spent up to now is      144.0 secs

     total energy              =   -9109.59587017 Ry
     estimated scf accuracy    <       1.31170192 Ry

     iteration #  6     ecut=    60.00 Ry     beta= 0.20
     Davidson diagonalization with overlap
     ethr =  5.96E-04,  avg # of iterations =  1.0

     negative rho (up, down):  5.815E-02 0.000E+00

     total cpu time spent up to now is      159.3 secs

     total energy              =   -9109.46561254 Ry
     estimated scf accuracy    <       0.95048473 Ry

     iteration #  7     ecut=    60.00 Ry     beta= 0.20
     Davidson diagonalization with overlap
     ethr =  4.32E-04,  avg # of iterations =  1.1

     negative rho (up, down):  6.063E-02 0.000E+00

     total cpu time spent up to now is      173.5 secs

     total energy              =   -9109.48183719 Ry
     estimated scf accuracy    <       0.64497855 Ry

     iteration #  8     ecut=    60.00 Ry     beta= 0.20
     Davidson diagonalization with overlap
     ethr =  2.93E-04,  avg # of iterations =  1.4

     negative rho (up, down):  6.229E-02 0.000E+00

     total cpu time spent up to now is      188.1 secs

     total energy              =   -9109.51259817 Ry
     estimated scf accuracy    <       0.42086169 Ry

     iteration #  9     ecut=    60.00 Ry     beta= 0.20
     Davidson diagonalization with overlap
     ethr =  1.91E-04,  avg # of iterations =  1.3

     negative rho (up, down):  6.247E-02 0.000E+00

     total cpu time spent up to now is      202.8 secs

     total energy              =   -9109.46864804 Ry
     estimated scf accuracy    <       0.48725741 Ry

     iteration # 10     ecut=    60.00 Ry     beta= 0.20
     Davidson diagonalization with overlap
     ethr =  1.91E-04,  avg # of iterations =  1.1

     negative rho (up, down):  6.307E-02 0.000E+00

     total cpu time spent up to now is      217.0 secs

     total energy              =   -9109.49907741 Ry
     estimated scf accuracy    <       0.02008042 Ry

     iteration # 11     ecut=    60.00 Ry     beta= 0.20
     Davidson diagonalization with overlap
     ethr =  9.13E-06,  avg # of iterations = 14.0

     negative rho (up, down):  6.369E-02 0.000E+00

     total cpu time spent up to now is      237.4 secs

     total energy              =   -9109.50029044 Ry
     estimated scf accuracy    <       0.01035212 Ry

     iteration # 12     ecut=    60.00 Ry     beta= 0.20
     Davidson diagonalization with overlap
     ethr =  4.71E-06,  avg # of iterations =  2.5

     negative rho (up, down):  6.431E-02 0.000E+00

     total cpu time spent up to now is      263.1 secs

     total energy              =   -9109.49874895 Ry
     estimated scf accuracy    <       0.01585563 Ry

     iteration # 13     ecut=    60.00 Ry     beta= 0.20
     Davidson diagonalization with overlap
     ethr =  4.71E-06,  avg # of iterations =  1.2

     negative rho (up, down):  6.530E-02 0.000E+00

     total cpu time spent up to now is      278.2 secs

     total energy              =   -9109.49978276 Ry
     estimated scf accuracy    <       0.00264046 Ry

     iteration # 14     ecut=    60.00 Ry     beta= 0.20
     Davidson diagonalization with overlap
     ethr =  1.20E-06,  avg # of iterations =  2.2

     negative rho (up, down):  6.557E-02 0.000E+00

     total cpu time spent up to now is      308.9 secs

     total energy              =   -9109.49996749 Ry
     estimated scf accuracy    <       0.00078048 Ry

     iteration # 15     ecut=    60.00 Ry     beta= 0.20
     Davidson diagonalization with overlap
     ethr =  3.55E-07,  avg # of iterations =  1.3

     negative rho (up, down):  6.571E-02 0.000E+00

     total cpu time spent up to now is      323.3 secs

     total energy              =   -9109.50001982 Ry
     estimated scf accuracy    <       0.00026818 Ry

     iteration # 16     ecut=    60.00 Ry     beta= 0.20
     Davidson diagonalization with overlap
     ethr =  1.22E-07,  avg # of iterations =  1.4

     negative rho (up, down):  6.578E-02 0.000E+00

     total cpu time spent up to now is      338.7 secs

     total energy              =   -9109.50003548 Ry
     estimated scf accuracy    <       0.00009964 Ry

     iteration # 17     ecut=    60.00 Ry     beta= 0.20
     Davidson diagonalization with overlap
     ethr =  4.53E-08,  avg # of iterations =  1.5

     negative rho (up, down):  6.582E-02 0.000E+00

     total cpu time spent up to now is      356.8 secs

     total energy              =   -9109.50003779 Ry
     estimated scf accuracy    <       0.00004682 Ry

     iteration # 18     ecut=    60.00 Ry     beta= 0.20
     Davidson diagonalization with overlap
     ethr =  2.13E-08,  avg # of iterations =  2.0

     negative rho (up, down):  6.588E-02 0.000E+00

     total cpu time spent up to now is      371.8 secs

     total energy              =   -9109.50003924 Ry
     estimated scf accuracy    <       0.00006102 Ry

     iteration # 19     ecut=    60.00 Ry     beta= 0.20
     Davidson diagonalization with overlap
     ethr =  2.13E-08,  avg # of iterations =  1.1

     negative rho (up, down):  6.584E-02 0.000E+00

     total cpu time spent up to now is      390.1 secs

     total energy              =   -9109.50003947 Ry
     estimated scf accuracy    <       0.00005663 Ry

     iteration # 20     ecut=    60.00 Ry     beta= 0.20
     Davidson diagonalization with overlap
     ethr =  2.13E-08,  avg # of iterations =  1.0

     negative rho (up, down):  6.583E-02 0.000E+00

     total cpu time spent up to now is      403.9 secs

     total energy              =   -9109.50004172 Ry
     estimated scf accuracy    <       0.00002916 Ry

     iteration # 21     ecut=    60.00 Ry     beta= 0.20
     Davidson diagonalization with overlap
     ethr =  1.33E-08,  avg # of iterations =  1.0

     negative rho (up, down):  6.582E-02 0.000E+00

     total cpu time spent up to now is      417.8 secs

     total energy              =   -9109.50004319 Ry
     estimated scf accuracy    <       0.00000590 Ry

     iteration # 22     ecut=    60.00 Ry     beta= 0.20
     Davidson diagonalization with overlap
     ethr =  2.68E-09,  avg # of iterations =  1.0

     negative rho (up, down):  6.581E-02 0.000E+00

     total cpu time spent up to now is      431.6 secs

     total energy              =   -9109.50004349 Ry
     estimated scf accuracy    <       0.00000186 Ry

     iteration # 23     ecut=    60.00 Ry     beta= 0.20
     Davidson diagonalization with overlap
     ethr =  8.45E-10,  avg # of iterations =  2.0

     negative rho (up, down):  6.577E-02 0.000E+00

     total cpu time spent up to now is      459.3 secs

     total energy              =   -9109.50004346 Ry
     estimated scf accuracy    <       0.00000091 Ry

     iteration # 24     ecut=    60.00 Ry     beta= 0.20
     Davidson diagonalization with overlap
     ethr =  4.12E-10,  avg # of iterations =  2.0

     negative rho (up, down):  6.574E-02 0.000E+00

     total cpu time spent up to now is      474.4 secs

     total energy              =   -9109.50004349 Ry
     estimated scf accuracy    <       0.00000105 Ry

     iteration # 25     ecut=    60.00 Ry     beta= 0.20
     Davidson diagonalization with overlap
     ethr =  4.12E-10,  avg # of iterations =  1.0

     negative rho (up, down):  6.572E-02 0.000E+00

     total cpu time spent up to now is      488.2 secs

     total energy              =   -9109.50004357 Ry
     estimated scf accuracy    <       0.00000026 Ry

     iteration # 26     ecut=    60.00 Ry     beta= 0.20
     Davidson diagonalization with overlap
     ethr =  1.17E-10,  avg # of iterations =  2.0

     negative rho (up, down):  6.571E-02 0.000E+00

     total cpu time spent up to now is      503.3 secs

     total energy              =   -9109.50004358 Ry
     estimated scf accuracy    <       0.00000025 Ry

     iteration # 27     ecut=    60.00 Ry     beta= 0.20
     Davidson diagonalization with overlap
     ethr =  1.14E-10,  avg # of iterations =  1.0

     negative rho (up, down):  6.569E-02 0.000E+00

     total cpu time spent up to now is      517.1 secs

     total energy              =   -9109.50004360 Ry
     estimated scf accuracy    <       0.00000004 Ry

     iteration # 28     ecut=    60.00 Ry     beta= 0.20
     Davidson diagonalization with overlap
     ethr =  1.67E-11,  avg # of iterations =  2.3

     negative rho (up, down):  6.568E-02 0.000E+00

     total cpu time spent up to now is      536.1 secs

     total energy              =   -9109.50004360 Ry
     estimated scf accuracy    <       0.00000002 Ry

     iteration # 29     ecut=    60.00 Ry     beta= 0.20
     Davidson diagonalization with overlap
     ethr =  7.62E-12,  avg # of iterations =  2.0

     negative rho (up, down):  6.567E-02 0.000E+00

     total cpu time spent up to now is      564.9 secs

     total energy              =   -9109.50004360 Ry
     estimated scf accuracy    <       0.00000003 Ry

     iteration # 30     ecut=    60.00 Ry     beta= 0.20
     Davidson diagonalization with overlap
     ethr =  7.62E-12,  avg # of iterations =  1.0

     negative rho (up, down):  6.567E-02 0.000E+00

     total cpu time spent up to now is      587.3 secs

     total energy              =   -9109.50004361 Ry
     estimated scf accuracy    <       0.00000003 Ry

     iteration # 31     ecut=    60.00 Ry     beta= 0.20
     Davidson diagonalization with overlap
     ethr =  7.62E-12,  avg # of iterations =  1.0

     negative rho (up, down):  6.567E-02 0.000E+00

     total cpu time spent up to now is      601.0 secs

     total energy              =   -9109.50004361 Ry
     estimated scf accuracy    <       0.00000001 Ry

     iteration # 32     ecut=    60.00 Ry     beta= 0.20
     Davidson diagonalization with overlap
     ethr =  6.23E-12,  avg # of iterations =  1.0

     negative rho (up, down):  6.566E-02 0.000E+00

     total cpu time spent up to now is      614.5 secs

     End of self-consistent calculation

          k = 0.0000 0.0000 0.0000 ( 85503 PWs)   bands (ev):

  -103.6142-103.3744-103.3377-103.0865-102.9807-102.8729 -68.8868 -68.8386
   -68.7094 -68.1632 -64.1296 -64.0729 -63.9599 -63.9438 -63.9152 -63.7851
   -63.7275 -63.6531 -63.6448 -63.5879 -63.5566 -63.4728 -63.3818 -63.3716
   -63.3707 -63.3273 -63.2503 -63.1642 -35.3691 -35.3262 -35.2939 -35.2881
   -35.2715 -35.2333 -35.1829 -35.1392 -35.0860 -35.0385 -34.7366 -34.6871
   -13.5753 -12.7982 -12.5636 -12.3263 -11.9129 -11.7562 -11.6164 -11.5685
   -11.4420 -11.2662  -6.4969  -6.0300  -5.7954  -5.5918  -5.5421  -5.2769
    -5.1997  -4.8373  -4.5770  -4.2641  -4.1822  -4.1235  -3.8824  -3.7674
    -3.7322  -3.6202  -3.5969  -3.5459  -3.3813  -3.3491  -3.2152  -3.0195
    -2.8925  -2.7925  -2.7640  -2.7388  -2.6225  -2.5699  -2.4733  -2.3870
    -2.2810  -2.2516  -2.1325  -2.0423  -1.9565  -1.9482  -1.9009  -1.8515
    -1.8299  -1.7028  -1.5999  -1.5362  -1.4340  -1.3990  -1.2986  -1.2798
    -1.2460  -1.1604  -1.0935  -1.0183  -0.9931  -0.8082  -0.7431  -0.6838
    -0.5933  -0.4961  -0.3787  -0.2480  -0.2161  -0.0580   0.0463   0.1993
     0.5720   0.7294   0.8785   0.9992   1.2268   1.4218   1.5083   1.5764
     1.7354   1.7530   2.0506   2.3729   2.5218   2.7201   2.8460   2.8890
     3.0205   3.1623   3.2027   3.3385

          k = 0.0000 0.4450 0.0000 ( 85443 PWs)   bands (ev):

  -103.6142-103.3743-103.3378-103.0865-102.9807-102.8729 -68.8867 -68.8385
   -68.7093 -68.1631 -64.1296 -64.0729 -63.9597 -63.9437 -63.9151 -63.7843
   -63.7290 -63.6530 -63.6439 -63.5881 -63.5566 -63.4722 -63.3857 -63.3706
   -63.3681 -63.3273 -63.2504 -63.1641 -35.3687 -35.3305 -35.2943 -35.2876
   -35.2749 -35.2329 -35.1825 -35.1434 -35.0856 -35.0380 -34.7359 -34.6919
   -13.5062 -12.7498 -12.4875 -12.2540 -11.8614 -11.7140 -11.5746 -11.5256
   -11.4041 -11.2418  -6.4197  -5.9688  -5.7217  -5.5328  -5.5063  -5.2116
    -5.1217  -4.7930  -4.5231  -4.3963  -4.1707  -4.1250  -3.9223  -3.8372
    -3.7926  -3.7340  -3.6045  -3.5328  -3.4649  -3.3446  -3.2069  -3.1823
    -2.9972  -2.9395  -2.8913  -2.8187  -2.7273  -2.6550  -2.5833  -2.4432
    -2.3551  -2.2956  -2.2005  -2.1322  -2.0684  -1.9740  -1.9493  -1.9160
    -1.8122  -1.7292  -1.6763  -1.6268  -1.5498  -1.4909  -1.3940  -1.3359
    -1.3319  -1.2614  -1.0606  -1.0376  -0.9679  -0.8083  -0.7613  -0.6912
    -0.5860  -0.5473  -0.3853  -0.3051  -0.1745  -0.0544   0.1381   0.2808
     0.4926   0.7372   0.8374   1.0496   1.1780   1.3730   1.4546   1.5592
     1.6968   1.7793   1.9087   2.2061   2.3588   2.5132   2.5499   2.7012
     2.8666   3.1504   3.2116   3.5715

          k = 0.0000 0.8899 0.0000 ( 85568 PWs)   bands (ev):

  -103.6142-103.3742-103.3379-103.0864-102.9808-102.8729 -68.8865 -68.8383
   -68.7091 -68.1630 -64.1297 -64.0731 -63.9597 -63.9438 -63.9153 -63.7824
   -63.7333 -63.6531 -63.6416 -63.5884 -63.5568 -63.4714 -63.3923 -63.3707
   -63.3630 -63.3274 -63.2502 -63.1644 -35.3679 -35.3414 -35.2979 -35.2863
   -35.2810 -35.2318 -35.1817 -35.1541 -35.0844 -35.0365 -34.7342 -34.7046
   -13.3165 -12.6149 -12.2703 -12.0481 -11.7282 -11.5976 -11.4630 -11.4043
   -11.3043 -11.1782  -6.2370  -5.8190  -5.5456  -5.5159  -5.3699  -5.0327
    -4.9503  -4.7663  -4.5994  -4.5297  -4.2757  -4.1815  -4.1432  -4.0015
    -3.9825  -3.8748  -3.8248  -3.7818  -3.6879  -3.5038  -3.3991  -3.2894
    -3.1788  -3.1407  -3.0433  -2.9404  -2.8651  -2.7647  -2.6808  -2.6317
    -2.5127  -2.4121  -2.4005  -2.2870  -2.2041  -2.0620  -2.0495  -2.0133
    -1.8983  -1.7850  -1.7275  -1.6920  -1.6553  -1.5863  -1.5020  -1.4837
    -1.3969  -1.3786  -1.1594  -1.0869  -1.0296  -0.9136  -0.8826  -0.7989
    -0.7324  -0.6867  -0.4691  -0.3913  -0.2822  -0.1679   0.2565   0.4924
     0.6693   0.7531   0.9484   1.0092   1.1105   1.2963   1.3543   1.4702
     1.6392   1.7620   1.9061   2.0013   2.1705   2.2980   2.4798   2.6317
     2.7242   3.2294   3.5953   3.8553

          k = 0.0000 1.3349 0.0000 ( 85592 PWs)   bands (ev):

  -103.6142-103.3741-103.3380-103.0864-102.9808-102.8729 -68.8862 -68.8381
   -68.7088 -68.1629 -64.1298 -64.0733 -63.9595 -63.9439 -63.9154 -63.7795
   -63.7389 -63.6531 -63.6388 -63.5887 -63.5571 -63.4701 -63.3982 -63.3706
   -63.3588 -63.3273 -63.2500 -63.1647 -35.3683 -35.3536 -35.3081 -35.2846
   -35.2829 -35.2305 -35.1820 -35.1661 -35.0829 -35.0347 -34.7327 -34.7194
   -13.0646 -12.4153 -11.9531 -11.7519 -11.5652 -11.4419 -11.3338 -11.2373
   -11.1784 -11.1004  -6.1882  -5.7812  -5.5624  -5.4486  -5.4158  -5.0967
    -5.0173  -4.8965  -4.8486  -4.7617  -4.5731  -4.3205  -4.2841  -4.0909
    -4.0190  -3.9691  -3.9225  -3.8333  -3.7723  -3.6283  -3.4829  -3.3778
    -3.2601  -3.2036  -3.1230  -3.0730  -2.9906  -2.8742  -2.8075  -2.6874
    -2.6035  -2.4836  -2.4590  -2.3951  -2.2951  -2.2373  -2.1079  -2.0765
    -2.0358  -1.8776  -1.8304  -1.7871  -1.7471  -1.6710  -1.5879  -1.4942
    -1.4848  -1.3769  -1.3345  -1.2063  -1.1466  -1.0963  -1.0526  -0.9717
    -0.8218  -0.7031  -0.6254  -0.5943  -0.5055  -0.3172   0.1143   0.5375
     0.7662   0.8756   1.0705   1.1329   1.1654   1.2913   1.4091   1.5121
     1.7190   1.8320   2.0490   2.2344   2.2623   2.3508   2.4413   2.7593
     3.0239   3.0786   3.2845   3.4564

          k = 0.0000 1.7798 0.0000 ( 85660 PWs)   bands (ev):

  -103.6142-103.3739-103.3381-103.0864-102.9809-102.8729 -68.8860 -68.8378
   -68.7086 -68.1627 -64.1298 -64.0734 -63.9595 -63.9439 -63.9154 -63.7767
   -63.7439 -63.6531 -63.6368 -63.5891 -63.5572 -63.4690 -63.4024 -63.3706
   -63.3562 -63.3273 -63.2499 -63.1650 -35.3730 -35.3590 -35.3183 -35.2833
   -35.2824 -35.2295 -35.1862 -35.1718 -35.0817 -35.0333 -34.7363 -34.7265
   -12.8512 -12.1936 -11.6258 -11.4816 -11.4062 -11.3088 -11.2562 -11.1358
   -11.0687 -11.0253  -6.4090  -6.0344  -5.9324  -5.8204  -5.5858  -5.3636
    -5.0941  -5.0243  -4.9017  -4.7562  -4.5634  -4.4557  -4.2157  -4.0818
    -3.9530  -3.9100  -3.7564  -3.7037  -3.6728  -3.6075  -3.4987  -3.4040
    -3.3045  -3.2111  -3.1879  -3.1490  -3.0435  -2.9643  -2.8721  -2.7709
    -2.6289  -2.5589  -2.4972  -2.4616  -2.3457  -2.2398  -2.1966  -2.0802
    -2.0268  -1.9828  -1.9428  -1.8638  -1.8103  -1.7697  -1.6211  -1.5729
    -1.5528  -1.5010  -1.3573  -1.2576  -1.2404  -1.1979  -1.1523  -1.1125
    -0.8990  -0.8421  -0.8080  -0.7582  -0.6002  -0.4509  -0.0093   0.3925
     0.8071   0.9226   1.1417   1.1910   1.2629   1.4794   1.6301   1.7202
     1.8304   1.8412   2.0339   2.1390   2.3797   2.6380   2.7126   2.7969
     3.0257   3.0912   3.1606   3.2663

          k = 0.0000-2.2248 0.0000 ( 85634 PWs)   bands (ev):

  -103.6142-103.3739-103.3382-103.0863-102.9809-102.8729 -68.8859 -68.8378
   -68.7085 -68.1627 -64.1299 -64.0735 -63.9593 -63.9439 -63.9154 -63.7753
   -63.7459 -63.6531 -63.6360 -63.5892 -63.5573 -63.4685 -63.4038 -63.3705
   -63.3552 -63.3273 -63.2498 -63.1650 -35.3762 -35.3597 -35.3224 -35.2828
   -35.2820 -35.2290 -35.1892 -35.1726 -35.0812 -35.0327 -34.7402 -34.7268
   -12.7697 -12.0788 -11.4673 -11.3771 -11.3376 -11.2815 -11.1937 -11.1168
   -11.0544 -10.9834  -6.5184  -6.2190  -6.1528  -5.9995  -5.7033  -5.4899
    -5.1651  -5.1150  -4.7263  -4.7043  -4.5828  -4.5230  -4.1848  -3.9328
    -3.9095  -3.8337  -3.7261  -3.7086  -3.6689  -3.4958  -3.4173  -3.3869
    -3.3355  -3.3019  -3.1746  -3.1377  -3.0854  -3.0183  -2.9232  -2.8254
    -2.6204  -2.6039  -2.4808  -2.4462  -2.3168  -2.2737  -2.1724  -2.1443
    -2.0457  -2.0184  -1.9351  -1.8613  -1.8305  -1.7947  -1.6638  -1.6432
    -1.5724  -1.5243  -1.3497  -1.3081  -1.2768  -1.2458  -1.1806  -1.0997
    -1.0000  -0.9491  -0.8895  -0.8489  -0.5842  -0.4800  -0.0328   0.3503
     0.7591   1.0012   1.0574   1.1577   1.4060   1.5054   1.5969   1.7418
     1.7862   1.9933   2.0762   2.2223   2.4018   2.6051   2.6517   2.7856
     3.0974   3.1323   3.2732   3.3600

          k =-0.5000 0.0000 0.0000 ( 85442 PWs)   bands (ev):

  -103.6142-103.3744-103.3377-103.0865-102.9807-102.8729 -68.8868 -68.8386
   -68.7094 -68.1632 -64.1295 -64.0728 -63.9598 -63.9436 -63.9151 -63.7851
   -63.7275 -63.6530 -63.6449 -63.5880 -63.5565 -63.4727 -63.3819 -63.3716
   -63.3706 -63.3273 -63.2504 -63.1641 -35.3691 -35.3262 -35.2939 -35.2881
   -35.2715 -35.2333 -35.1829 -35.1392 -35.0860 -35.0385 -34.7366 -34.6871
   -13.5740 -12.8068 -12.6013 -12.1616 -12.0253 -11.8492 -11.6191 -11.5047
   -11.3680 -11.3143  -6.4937  -6.0666  -5.8662  -5.6004  -5.4371  -5.2040
    -5.1647  -4.8186  -4.6165  -4.4511  -4.2597  -4.0609  -3.8220  -3.7807
    -3.6953  -3.6035  -3.5325  -3.4682  -3.3455  -3.2749  -3.1825  -3.1100
    -3.0687  -2.9162  -2.7477  -2.7215  -2.6108  -2.5577  -2.4679  -2.4233
    -2.2960  -2.1784  -2.1075  -2.0488  -2.0086  -1.9958  -1.9036  -1.8547
    -1.7830  -1.7122  -1.5472  -1.4911  -1.4521  -1.4328  -1.2971  -1.2652
    -1.2357  -1.1525  -1.0949  -1.0001  -0.9478  -0.8166  -0.7880  -0.6857
    -0.5091  -0.4824  -0.4343  -0.2531  -0.1960  -0.0816   0.0625   0.1916
     0.5756   0.7436   0.8551   1.0520   1.3051   1.3345   1.5092   1.5494
     1.5935   1.7563   2.1021   2.4305   2.4894   2.6889   2.7352   2.9296
     2.9850   3.1749   3.2396   3.3300

          k =-0.5000 0.4450 0.0000 ( 85420 PWs)   bands (ev):

  -103.6142-103.3743-103.3377-103.0865-102.9807-102.8729 -68.8867 -68.8385
   -68.7093 -68.1631 -64.1295 -64.0728 -63.9597 -63.9436 -63.9151 -63.7843
   -63.7290 -63.6530 -63.6439 -63.5880 -63.5565 -63.4723 -63.3857 -63.3706
   -63.3681 -63.3273 -63.2503 -63.1642 -35.3687 -35.3305 -35.2943 -35.2876
   -35.2749 -35.2329 -35.1825 -35.1434 -35.0856 -35.0380 -34.7359 -34.6919
   -13.5050 -12.7553 -12.5282 -12.0931 -11.9602 -11.8098 -11.5791 -11.4689
   -11.3335 -11.2849  -6.4146  -6.0001  -5.7976  -5.5305  -5.4125  -5.1413
    -5.0987  -4.7816  -4.5634  -4.4486  -4.3605  -4.0334  -3.9296  -3.8649
    -3.7717  -3.6407  -3.5023  -3.4736  -3.4234  -3.3514  -3.2205  -3.1589
    -3.0920  -2.9953  -2.9619  -2.8249  -2.7551  -2.6217  -2.5403  -2.5138
    -2.3369  -2.3155  -2.1843  -2.1439  -2.0583  -2.0089  -1.9726  -1.8902
    -1.8471  -1.7686  -1.6426  -1.5895  -1.5110  -1.4420  -1.4195  -1.3677
    -1.2979  -1.2309  -1.0779  -1.0271  -0.9698  -0.8480  -0.7638  -0.7132
    -0.5920  -0.4997  -0.3627  -0.2935  -0.1998  -0.0358   0.1556   0.2663
     0.5830   0.7078   0.8550   1.1168   1.2097   1.2637   1.4609   1.4836
     1.6388   1.7898   1.9816   2.1220   2.3889   2.4285   2.5650   2.7357
     2.7931   3.0936   3.2474   3.5454

          k =-0.5000 0.8899 0.0000 ( 85558 PWs)   bands (ev):

  -103.6142-103.3742-103.3379-103.0864-102.9808-102.8729 -68.8865 -68.8383
   -68.7091 -68.1630 -64.1297 -64.0731 -63.9597 -63.9438 -63.9153 -63.7825
   -63.7333 -63.6531 -63.6416 -63.5884 -63.5568 -63.4714 -63.3923 -63.3707
   -63.3630 -63.3273 -63.2502 -63.1645 -35.3679 -35.3414 -35.2979 -35.2863
   -35.2810 -35.2318 -35.1817 -35.1541 -35.0844 -35.0365 -34.7342 -34.7046
   -13.3157 -12.6157 -12.3128 -11.9032 -11.7828 -11.6978 -11.4731 -11.3768
   -11.2396 -11.2070  -6.2233  -5.8277  -5.6486  -5.4452  -5.3403  -5.0319
    -4.9543  -4.7877  -4.6077  -4.4414  -4.3808  -4.2190  -4.1287  -4.0420
    -3.9937  -3.8521  -3.7886  -3.6604  -3.5874  -3.4765  -3.4406  -3.3221
    -3.1941  -3.1369  -3.0677  -2.9533  -2.8676  -2.7616  -2.7220  -2.6053
    -2.5506  -2.5000  -2.3819  -2.2271  -2.2177  -2.0822  -2.0553  -2.0356
    -1.9700  -1.8063  -1.7394  -1.6410  -1.5855  -1.5629  -1.4898  -1.4697
    -1.3725  -1.3393  -1.2353  -1.1348  -1.0626  -0.9378  -0.9098  -0.8198
    -0.7311  -0.6102  -0.5038  -0.3241  -0.2244  -0.1204   0.2547   0.4944
     0.7106   0.7543   0.8650   1.0291   1.2252   1.3472   1.3597   1.4782
     1.5365   1.6757   1.8602   1.9491   2.1903   2.3895   2.4983   2.5837
     2.6302   3.2115   3.6124   3.8120

          k =-0.5000 1.3349 0.0000 ( 85634 PWs)   bands (ev):

  -103.6142-103.3741-103.3380-103.0864-102.9808-102.8729 -68.8862 -68.8381
   -68.7088 -68.1629 -64.1298 -64.0733 -63.9596 -63.9439 -63.9154 -63.7796
   -63.7389 -63.6531 -63.6389 -63.5888 -63.5571 -63.4701 -63.3982 -63.3706
   -63.3589 -63.3273 -63.2500 -63.1648 -35.3683 -35.3536 -35.3081 -35.2846
   -35.2829 -35.2305 -35.1820 -35.1661 -35.0829 -35.0347 -34.7327 -34.7194
   -13.0643 -12.4145 -11.9877 -11.6491 -11.5763 -11.5072 -11.3431 -11.2661
   -11.1238 -11.1098  -6.1662  -5.7890  -5.5280  -5.5140  -5.3315  -5.2104
    -5.1002  -4.9079  -4.8115  -4.7588  -4.4322  -4.3151  -4.2889  -4.1518
    -4.0498  -3.9846  -3.8854  -3.7719  -3.7248  -3.6093  -3.5497  -3.3575
    -3.2972  -3.1717  -3.0853  -3.0677  -2.9599  -2.8708  -2.7898  -2.7129
    -2.6577  -2.5821  -2.4565  -2.4005  -2.2576  -2.2102  -2.1511  -2.1062
    -2.0379  -1.9047  -1.8926  -1.7788  -1.7470  -1.6155  -1.5435  -1.5180
    -1.4652  -1.3452  -1.3134  -1.2311  -1.1988  -1.0728  -1.0464  -0.9548
    -0.8365  -0.7057  -0.6803  -0.5743  -0.5069  -0.2856   0.1221   0.4983
     0.8479   0.9942   1.0556   1.1538   1.2753   1.3078   1.3309   1.4889
     1.6636   1.8382   1.9485   2.0203   2.3471   2.5010   2.5548   2.7041
     2.8908   2.9613   3.3235   3.5295

          k =-0.5000 1.7798 0.0000 ( 85628 PWs)   bands (ev):

  -103.6142-103.3739-103.3381-103.0864-102.9809-102.8729 -68.8860 -68.8378
   -68.7086 -68.1627 -64.1298 -64.0734 -63.9594 -63.9439 -63.9154 -63.7767
   -63.7438 -63.6531 -63.6367 -63.5891 -63.5572 -63.4690 -63.4023 -63.3706
   -63.3561 -63.3273 -63.2499 -63.1650 -35.3730 -35.3590 -35.3183 -35.2833
   -35.2824 -35.2295 -35.1862 -35.1718 -35.0817 -35.0333 -34.7363 -34.7265
   -12.8512 -12.1932 -11.6406 -11.4622 -11.3977 -11.3156 -11.2496 -11.1618
   -11.0572 -11.0242  -6.4148  -6.0794  -5.9017  -5.7795  -5.5359  -5.2691
    -5.2122  -5.1608  -4.8699  -4.7417  -4.5638  -4.4229  -4.2485  -4.1050
    -3.9719  -3.8792  -3.7865  -3.6937  -3.6355  -3.6016  -3.4317  -3.3592
    -3.3148  -3.2375  -3.1693  -3.1359  -3.0135  -2.9762  -2.8402  -2.7822
    -2.6661  -2.5899  -2.5281  -2.4810  -2.2943  -2.2495  -2.1941  -2.1243
    -2.0298  -2.0071  -1.9581  -1.9062  -1.8168  -1.7362  -1.6136  -1.5533
    -1.4997  -1.4726  -1.3730  -1.3150  -1.2468  -1.1750  -1.1367  -1.0809
    -0.9355  -0.8806  -0.8196  -0.7749  -0.6105  -0.4213  -0.0046   0.3893
     0.7972   1.0290   1.1643   1.2747   1.3857   1.4915   1.5769   1.6713
     1.7227   1.8392   1.9421   2.2024   2.3291   2.5613   2.6810   2.8542
     2.9320   3.0295   3.2469   3.2929

          k =-0.5000-2.2248 0.0000 ( 85672 PWs)   bands (ev):

  -103.6142-103.3739-103.3382-103.0863-102.9809-102.8729 -68.8859 -68.8378
   -68.7085 -68.1627 -64.1299 -64.0735 -63.9594 -63.9440 -63.9155 -63.7754
   -63.7460 -63.6531 -63.6360 -63.5892 -63.5573 -63.4686 -63.4038 -63.3706
   -63.3553 -63.3273 -63.2498 -63.1651 -35.3762 -35.3597 -35.3224 -35.2828
   -35.2820 -35.2290 -35.1892 -35.1726 -35.0812 -35.0327 -34.7402 -34.7268
   -12.7697 -12.0788 -11.4676 -11.3766 -11.3384 -11.2817 -11.1942 -11.1161
   -11.0536 -10.9833  -6.5433  -6.2772  -6.1055  -5.9460  -5.6775  -5.3581
    -5.2519  -5.1969  -4.7843  -4.7479  -4.5501  -4.5276  -4.1507  -3.9977
    -3.9318  -3.8085  -3.7282  -3.6247  -3.5818  -3.5324  -3.4410  -3.4003
    -3.3306  -3.2874  -3.2440  -3.2023  -2.9619  -2.9571  -2.8630  -2.8229
    -2.6705  -2.6198  -2.4938  -2.4089  -2.3430  -2.2816  -2.2147  -2.1210
    -2.0575  -2.0457  -1.9546  -1.9037  -1.8171  -1.7922  -1.6696  -1.5861
    -1.5463  -1.5080  -1.4160  -1.3107  -1.2619  -1.2234  -1.1910  -1.0802
    -1.0650  -0.9623  -0.8663  -0.8573  -0.5793  -0.4839  -0.0294   0.3593
     0.7503   1.0862   1.1156   1.2102   1.2847   1.5373   1.6010   1.7341
     1.9231   2.0086   2.1244   2.1556   2.1776   2.4504   2.7289   2.7625
     2.9511   3.0586   3.4175   3.4677

     the Fermi energy is    -0.0332 ev

!    total energy              =   -9109.50004361 Ry
     total all-electron energy =     -9109.500044 Ry
     estimated scf accuracy    <          2.4E-09 Ry
     smearing contrib. (-TS)   =      -0.00040151 Ry
     internal energy E=F+TS    =   -9109.49964210 Ry

     The total energy is F=E-TS. E is the sum of the following terms:
     one-electron contribution =  -16408.58807324 Ry
     hartree contribution      =    8063.04388205 Ry
     xc contribution           =    -365.22214993 Ry
     ewald contribution        =    5869.00113929 Ry
     one-center paw contrib.   =   -6267.73444027 Ry

     convergence has been achieved in  32 iterations

     negative rho (up, down):  6.566E-02 0.000E+00

     Forces acting on atoms (cartesian axes, Ry/au):

     atom    1 type  1   force =    -0.39205594   -0.03768196    0.30077408
     atom    2 type  1   force =     0.00274553    0.01751697   -0.00953939
     atom    3 type  1   force =     0.04543045   -0.02012630    0.01722709
     atom    4 type  1   force =     0.01334502    0.01806978   -0.01594736
     atom    5 type  2   force =    -0.00625957   -0.02010863    0.00248883
     atom    6 type  2   force =     0.00160307    0.02032562   -0.01053591
     atom    7 type  2   force =    -0.00648050   -0.02063005    0.00567445
     atom    8 type  2   force =    -0.02916804    0.02037296    0.00296263
     atom    9 type  2   force =    -0.00495823   -0.00877923    0.00801644
     atom   10 type  2   force =     0.22410362    0.02557021   -0.18873168
     atom   11 type  3   force =    -0.05609418    0.01712330    0.00584546
     atom   12 type  3   force =    -0.00465982   -0.01376914   -0.01537799
     atom   13 type  3   force =     0.00442040   -0.00955323    0.01502403
     atom   14 type  3   force =     0.08774150    0.01023231   -0.01057181
     atom   15 type  3   force =     0.00212407    0.01395079    0.01780360
     atom   16 type  3   force =     0.00579530   -0.01402298   -0.01532800
     atom   17 type  3   force =    -0.00239283   -0.00888457    0.01515176
     atom   18 type  3   force =    -0.21438941    0.01069147    0.20411405
     atom   19 type  3   force =     0.33345402   -0.00908391   -0.31986578
     atom   20 type  3   force =    -0.00430445    0.00878658   -0.00918450

     Total force =     0.808648     Total SCF correction =     0.000217


     Computing stress (Cartesian axis) and pressure


     negative rho (up, down):  6.566E-02 0.000E+00
          total   stress  (Ry/bohr**3)                   (kbar)     P=       10.14
   0.00019165   0.00000329  -0.00011535           28.19        0.48      -16.97
   0.00000329  -0.00006285   0.00001136            0.48       -9.24        1.67
  -0.00011535   0.00001136   0.00007803          -16.97        1.67       11.48


     BFGS Geometry Optimization
     Energy error            =      0.0E+00 Ry
     Gradient error          =      3.9E-01 Ry/Bohr

     number of scf cycles    =   1
     number of bfgs steps    =   0

     energy             new  =   -9109.5000436058 Ry

     new trust radius        =       0.4955732386 bohr
     new conv_thr            =       0.0000000100 Ry


ATOMIC_POSITIONS (angstrom)
Ta           15.1843737587        0.8949831317       12.6030030210
Ta            6.5730033843        2.7540392614       12.5869483054
Ta            2.2891963722        0.9042731852       12.4527821423
Ta           11.0925152262        2.7543317956       12.5837175091
Ni           12.8610957362        0.9042825381       11.7630066248
Ni            4.0449484338        2.7555255366       13.2685685886
Ni            4.7890373894        0.9040066139       11.7644257492
Ni           13.5973255490        2.7555505892       13.2759687670
Ni            8.8257228821        0.9102777956       12.3724477146
Ni            0.1266674328        2.7583008541       12.5677373064
Te           14.1833586139        2.7538309407       10.5383500337
Te            5.3902559818        0.9076372470       14.4924344242
Te           10.5977722941        0.9098682102       10.5272842529
Te            1.8215808891        2.7501843858       14.5109005956
Te            3.4448127005        2.7521521238       10.5444547992
Te           12.2670562768        0.9075029221       14.4926813199
Te            7.0603521897        0.9102220522       10.5271892363
Te           15.7684519153        2.7504273653       14.6246796334
Te            0.1847551915        0.9101165674       10.6683533850
Te            8.8262801460        2.7494193381       14.1933175913



     Writing config-only to output data dir /ddn/data/physics/eamoujaes/2D-Ta2Ni3Te5/ELASTIC/C12/OUT/ta2ni3te5.save/
     NEW-OLD atomic charge density approx. for the potential

     negative rho (up, down):  6.491E-02 0.000E+00

     total cpu time spent up to now is      698.2 secs

     Self-consistent Calculation

     iteration #  1     ecut=    60.00 Ry     beta= 0.20
     Davidson diagonalization with overlap
     c_bands:  1 eigenvalues not converged
     ethr =  1.00E-06,  avg # of iterations = 19.8

     negative rho (up, down):  6.487E-02 0.000E+00

     total cpu time spent up to now is      758.7 secs

     total energy              =   -9108.90314045 Ry
     estimated scf accuracy    <       3.46844038 Ry

     iteration #  2     ecut=    60.00 Ry     beta= 0.20
     Davidson diagonalization with overlap
     ethr =  1.58E-03,  avg # of iterations =  2.8

     negative rho (up, down):  6.495E-02 0.000E+00

     total cpu time spent up to now is      774.3 secs

     total energy              =   -9107.10240937 Ry
     estimated scf accuracy    <      61.50455655 Ry

     iteration #  3     ecut=    60.00 Ry     beta= 0.20
     Davidson diagonalization with overlap
     ethr =  1.58E-03,  avg # of iterations =  2.3

     negative rho (up, down):  6.495E-02 0.000E+00

     total cpu time spent up to now is      790.0 secs

     total energy              =   -9109.79555096 Ry
     estimated scf accuracy    <       9.53193251 Ry

     iteration #  4     ecut=    60.00 Ry     beta= 0.20
     Davidson diagonalization with overlap
     ethr =  1.58E-03,  avg # of iterations =  1.0

     negative rho (up, down):  6.499E-02 0.000E+00

     total cpu time spent up to now is      809.9 secs

     total energy              =   -9109.94741735 Ry
     estimated scf accuracy    <       1.52387869 Ry

     iteration #  5     ecut=    60.00 Ry     beta= 0.20
     Davidson diagonalization with overlap
     ethr =  6.93E-04,  avg # of iterations =  1.0

     negative rho (up, down):  6.494E-02 0.000E+00

     total cpu time spent up to now is      838.3 secs

     total energy              =   -9109.88497293 Ry
     estimated scf accuracy    <       0.33308424 Ry

     iteration #  6     ecut=    60.00 Ry     beta= 0.20
     Davidson diagonalization with overlap
     ethr =  1.51E-04,  avg # of iterations =  2.0

     negative rho (up, down):  6.492E-02 0.000E+00

     total cpu time spent up to now is      861.5 secs

     total energy              =   -9109.88188040 Ry
     estimated scf accuracy    <       0.06156753 Ry

     iteration #  7     ecut=    60.00 Ry     beta= 0.20
     Davidson diagonalization with overlap
     ethr =  2.80E-05,  avg # of iterations =  3.7

     negative rho (up, down):  6.490E-02 0.000E+00

     total cpu time spent up to now is      879.9 secs

     total energy              =   -9109.87499644 Ry
     estimated scf accuracy    <       0.04261797 Ry

     iteration #  8     ecut=    60.00 Ry     beta= 0.20
     Davidson diagonalization with overlap
     ethr =  1.94E-05,  avg # of iterations =  1.2

     negative rho (up, down):  6.482E-02 0.000E+00

     total cpu time spent up to now is      896.0 secs

     total energy              =   -9109.83218512 Ry
     estimated scf accuracy    <       0.03837205 Ry

     iteration #  9     ecut=    60.00 Ry     beta= 0.20
     Davidson diagonalization with overlap
     ethr =  1.74E-05,  avg # of iterations =  2.0

     negative rho (up, down):  6.479E-02 0.000E+00

     total cpu time spent up to now is      922.5 secs

     total energy              =   -9109.81789823 Ry
     estimated scf accuracy    <       0.00518240 Ry

     iteration # 10     ecut=    60.00 Ry     beta= 0.20
     Davidson diagonalization with overlap
     ethr =  2.36E-06,  avg # of iterations = 11.9

     negative rho (up, down):  6.473E-02 0.000E+00

     total cpu time spent up to now is      943.2 secs

     total energy              =   -9109.80151276 Ry
     estimated scf accuracy    <       0.02938355 Ry

     iteration # 11     ecut=    60.00 Ry     beta= 0.20
     Davidson diagonalization with overlap
     ethr =  2.36E-06,  avg # of iterations =  3.4

     negative rho (up, down):  6.472E-02 0.000E+00

     total cpu time spent up to now is      979.1 secs

     total energy              =   -9109.79868128 Ry
     estimated scf accuracy    <       0.08917572 Ry

     iteration # 12     ecut=    60.00 Ry     beta= 0.20
     Davidson diagonalization with overlap
     ethr =  2.36E-06,  avg # of iterations =  2.0

     negative rho (up, down):  6.470E-02 0.000E+00

     total cpu time spent up to now is      994.0 secs

     total energy              =   -9109.79421007 Ry
     estimated scf accuracy    <       0.02616448 Ry

     iteration # 13     ecut=    60.00 Ry     beta= 0.20
     Davidson diagonalization with overlap
     ethr =  2.36E-06,  avg # of iterations =  2.0

     negative rho (up, down):  6.466E-02 0.000E+00

     total cpu time spent up to now is     1010.4 secs

     total energy              =   -9109.78451455 Ry
     estimated scf accuracy    <       0.02670412 Ry

     iteration # 14     ecut=    60.00 Ry     beta= 0.20
     Davidson diagonalization with overlap
     ethr =  2.36E-06,  avg # of iterations =  2.5

     negative rho (up, down):  6.464E-02 0.000E+00

     total cpu time spent up to now is     1026.2 secs

     total energy              =   -9109.78508402 Ry
     estimated scf accuracy    <       0.00170455 Ry

     iteration # 15     ecut=    60.00 Ry     beta= 0.20
     Davidson diagonalization with overlap
     ethr =  7.75E-07,  avg # of iterations =  2.5

     negative rho (up, down):  6.464E-02 0.000E+00

     total cpu time spent up to now is     1041.9 secs

     total energy              =   -9109.78529631 Ry
     estimated scf accuracy    <       0.00039029 Ry

     iteration # 16     ecut=    60.00 Ry     beta= 0.20
     Davidson diagonalization with overlap
     ethr =  1.77E-07,  avg # of iterations =  2.0

     negative rho (up, down):  6.464E-02 0.000E+00

     total cpu time spent up to now is     1058.3 secs

     total energy              =   -9109.78523292 Ry
     estimated scf accuracy    <       0.00031964 Ry

     iteration # 17     ecut=    60.00 Ry     beta= 0.20
     Davidson diagonalization with overlap
     ethr =  1.45E-07,  avg # of iterations =  2.0

     negative rho (up, down):  6.463E-02 0.000E+00

     total cpu time spent up to now is     1084.6 secs

     total energy              =   -9109.78525473 Ry
     estimated scf accuracy    <       0.00006954 Ry

     iteration # 18     ecut=    60.00 Ry     beta= 0.20
     Davidson diagonalization with overlap
     ethr =  3.16E-08,  avg # of iterations =  2.0

     negative rho (up, down):  6.463E-02 0.000E+00

     total cpu time spent up to now is     1100.0 secs

     total energy              =   -9109.78525695 Ry
     estimated scf accuracy    <       0.00006053 Ry

     iteration # 19     ecut=    60.00 Ry     beta= 0.20
     Davidson diagonalization with overlap
     ethr =  2.75E-08,  avg # of iterations =  2.0

     negative rho (up, down):  6.463E-02 0.000E+00

     total cpu time spent up to now is     1115.1 secs

     total energy              =   -9109.78525705 Ry
     estimated scf accuracy    <       0.00002974 Ry

     iteration # 20     ecut=    60.00 Ry     beta= 0.20
     Davidson diagonalization with overlap
     ethr =  1.35E-08,  avg # of iterations =  2.0

     negative rho (up, down):  6.463E-02 0.000E+00

     total cpu time spent up to now is     1130.1 secs

     total energy              =   -9109.78525923 Ry
     estimated scf accuracy    <       0.00000528 Ry

     iteration # 21     ecut=    60.00 Ry     beta= 0.20
     Davidson diagonalization with overlap
     ethr =  2.40E-09,  avg # of iterations =  1.5

     negative rho (up, down):  6.462E-02 0.000E+00

     total cpu time spent up to now is     1144.7 secs

     total energy              =   -9109.78525937 Ry
     estimated scf accuracy    <       0.00000141 Ry

     iteration # 22     ecut=    60.00 Ry     beta= 0.20
     Davidson diagonalization with overlap
     ethr =  6.39E-10,  avg # of iterations =  2.0

     negative rho (up, down):  6.462E-02 0.000E+00

     total cpu time spent up to now is     1160.7 secs

     total energy              =   -9109.78525935 Ry
     estimated scf accuracy    <       0.00000114 Ry

     iteration # 23     ecut=    60.00 Ry     beta= 0.20
     Davidson diagonalization with overlap
     ethr =  5.19E-10,  avg # of iterations =  1.8

     negative rho (up, down):  6.462E-02 0.000E+00

     total cpu time spent up to now is     1175.5 secs

     total energy              =   -9109.78525943 Ry
     estimated scf accuracy    <       0.00000049 Ry

     iteration # 24     ecut=    60.00 Ry     beta= 0.20
     Davidson diagonalization with overlap
     ethr =  2.21E-10,  avg # of iterations =  1.3

     negative rho (up, down):  6.462E-02 0.000E+00

     total cpu time spent up to now is     1190.2 secs

     total energy              =   -9109.78525947 Ry
     estimated scf accuracy    <       0.00000010 Ry

     iteration # 25     ecut=    60.00 Ry     beta= 0.20
     Davidson diagonalization with overlap
     ethr =  4.75E-11,  avg # of iterations =  2.0

     negative rho (up, down):  6.462E-02 0.000E+00

     total cpu time spent up to now is     1205.3 secs

     total energy              =   -9109.78525947 Ry
     estimated scf accuracy    <       0.00000011 Ry

     iteration # 26     ecut=    60.00 Ry     beta= 0.20
     Davidson diagonalization with overlap
     ethr =  4.75E-11,  avg # of iterations =  1.2

     negative rho (up, down):  6.462E-02 0.000E+00

     total cpu time spent up to now is     1220.0 secs

     total energy              =   -9109.78525948 Ry
     estimated scf accuracy    <       0.00000005 Ry

     iteration # 27     ecut=    60.00 Ry     beta= 0.20
     Davidson diagonalization with overlap
     ethr =  2.18E-11,  avg # of iterations =  1.8

     negative rho (up, down):  6.462E-02 0.000E+00

     total cpu time spent up to now is     1239.3 secs

     total energy              =   -9109.78525948 Ry
     estimated scf accuracy    <       0.00000002 Ry

     iteration # 28     ecut=    60.00 Ry     beta= 0.20
     Davidson diagonalization with overlap
     ethr =  7.70E-12,  avg # of iterations =  2.2

     negative rho (up, down):  6.462E-02 0.000E+00

     total cpu time spent up to now is     1254.0 secs

     End of self-consistent calculation

          k = 0.0000 0.0000 0.0000 ( 85503 PWs)   bands (ev):

  -103.4175-103.3683-103.2746-103.2654-103.1238-102.8668 -68.7874 -68.7847
   -68.7184 -68.5557 -63.9720 -63.9466 -63.8574 -63.8519 -63.8480 -63.7345
   -63.6834 -63.6814 -63.6499 -63.6321 -63.6189 -63.5531 -63.5252 -63.5224
   -63.4864 -63.3637 -63.3189 -63.1618 -35.2537 -35.2514 -35.2191 -35.2169
   -35.2002 -35.1797 -35.1746 -35.1670 -35.1229 -35.1176 -35.0135 -35.0021
   -13.0795 -12.5102 -12.4764 -12.2861 -11.8662 -11.7940 -11.6039 -11.5781
   -11.3688 -11.2473  -6.3342  -5.8111  -5.7301  -5.5574  -5.4940  -5.2589
    -5.2026  -4.7563  -4.5710  -4.0830  -4.0015  -3.9164  -3.8145  -3.7160
    -3.6891  -3.5862  -3.5724  -3.5319  -3.4909  -3.3343  -3.1010  -2.8487
    -2.8176  -2.7957  -2.6391  -2.5984  -2.5886  -2.5108  -2.3815  -2.3560
    -2.3197  -2.1869  -2.1098  -2.0605  -2.0115  -1.9802  -1.9341  -1.7858
    -1.6665  -1.6292  -1.6024  -1.5326  -1.4461  -1.4351  -1.3752  -1.2988
    -1.2559  -1.2271  -1.1980  -1.0927  -0.9587  -0.7820  -0.7363  -0.7000
    -0.4959  -0.4766  -0.3077  -0.2630  -0.2048  -0.0989   0.0607   0.1768
     0.5759   0.8490   0.8975   1.0151   1.2929   1.5004   1.5294   1.6236
     1.8203   1.9006   2.0484   2.0923   2.3599   2.6552   2.8484   2.9163
     3.0595   3.0698   3.2000   3.3679

          k = 0.0000 0.4450 0.0000 ( 85443 PWs)   bands (ev):

  -103.4175-103.3683-103.2744-103.2656-103.1238-102.8668 -68.7873 -68.7846
   -68.7183 -68.5556 -63.9719 -63.9466 -63.8569 -63.8519 -63.8479 -63.7358
   -63.6824 -63.6800 -63.6503 -63.6339 -63.6189 -63.5519 -63.5251 -63.5228
   -63.4864 -63.3636 -63.3190 -63.1617 -35.2534 -35.2510 -35.2232 -35.2211
   -35.1997 -35.1792 -35.1742 -35.1713 -35.1224 -35.1171 -35.0176 -35.0022
   -13.0045 -12.4437 -12.3963 -12.2334 -11.8122 -11.7596 -11.5545 -11.5341
   -11.3341 -11.2233  -6.2536  -5.7430  -5.6532  -5.4947  -5.4389  -5.1942
    -5.1277  -4.7027  -4.5193  -4.0878  -4.0371  -3.9625  -3.9036  -3.8094
    -3.7475  -3.6797  -3.6222  -3.5696  -3.3984  -3.2927  -3.2271  -2.9289
    -2.8839  -2.8600  -2.8429  -2.7081  -2.6739  -2.6058  -2.4886  -2.4274
    -2.3321  -2.2521  -2.1939  -2.1438  -2.1053  -2.0417  -1.9880  -1.8650
    -1.7640  -1.7478  -1.6781  -1.6267  -1.5783  -1.4820  -1.4506  -1.4030
    -1.3054  -1.2617  -1.2053  -1.0038  -0.9262  -0.8808  -0.7706  -0.6404
    -0.6135  -0.5122  -0.3908  -0.2439  -0.2112  -0.1349   0.2529   0.2926
     0.5349   0.7172   0.9558   1.0485   1.2645   1.3263   1.5095   1.6670
     1.6878   1.8405   1.9223   2.0078   2.3610   2.5021   2.5944   2.6538
     2.8215   2.9197   3.2356   3.5408

          k = 0.0000 0.8899 0.0000 ( 85568 PWs)   bands (ev):

  -103.4174-103.3684-103.2738-103.2662-103.1238-102.8668 -68.7871 -68.7844
   -68.7181 -68.5554 -63.9721 -63.9469 -63.8562 -63.8520 -63.8481 -63.7392
   -63.6800 -63.6766 -63.6513 -63.6390 -63.6190 -63.5485 -63.5252 -63.5239
   -63.4866 -63.3637 -63.3190 -63.1620 -35.2528 -35.2505 -35.2338 -35.2316
   -35.1990 -35.1822 -35.1780 -35.1730 -35.1211 -35.1156 -35.0292 -35.0015
   -12.7973 -12.2625 -12.1697 -12.0734 -11.6807 -11.6563 -11.4203 -11.4093
   -11.2468 -11.1612  -6.0593  -5.5737  -5.4733  -5.3672  -5.2949  -5.0423
    -4.9468  -4.6209  -4.5850  -4.2897  -4.1652  -4.0846  -4.0207  -3.9627
    -3.8785  -3.8389  -3.7849  -3.7381  -3.6495  -3.5260  -3.2559  -3.1845
    -3.1131  -3.0892  -3.0351  -2.9117  -2.8495  -2.6901  -2.6375  -2.5653
    -2.5362  -2.4270  -2.3857  -2.2856  -2.1847  -2.1084  -2.0444  -1.9559
    -1.9188  -1.8711  -1.8043  -1.7266  -1.6449  -1.5745  -1.5330  -1.4836
    -1.3989  -1.3666  -1.2711  -1.1255  -0.9263  -0.8970  -0.8683  -0.8478
    -0.7763  -0.5975  -0.5330  -0.4313  -0.3441  -0.2765   0.4290   0.5769
     0.6300   0.9258   0.9708   1.0012   1.1348   1.2437   1.2858   1.3322
     1.7742   1.8463   1.8686   2.0283   2.0843   2.3722   2.4183   2.5831
     2.7113   2.8857   3.6410   3.8212

          k = 0.0000 1.3349 0.0000 ( 85592 PWs)   bands (ev):

  -103.4173-103.3686-103.2729-103.2671-103.1238-102.8668 -68.7868 -68.7841
   -68.7178 -68.5552 -63.9723 -63.9472 -63.8551 -63.8520 -63.8482 -63.7431
   -63.6760 -63.6722 -63.6528 -63.6460 -63.6189 -63.5440 -63.5256 -63.5252
   -63.4868 -63.3636 -63.3189 -63.1623 -35.2555 -35.2532 -35.2434 -35.2412
   -35.2026 -35.1911 -35.1764 -35.1717 -35.1195 -35.1137 -35.0441 -35.0002
   -12.5216 -12.0074 -11.8466 -11.8092 -11.5545 -11.4817 -11.2714 -11.2185
   -11.1568 -11.0893  -5.9555  -5.5045  -5.4582  -5.3787  -5.2841  -5.0015
    -4.9322  -4.8209  -4.7432  -4.6360  -4.4490  -4.2907  -4.2063  -3.9975
    -3.9851  -3.9482  -3.8808  -3.7665  -3.7118  -3.5814  -3.3758  -3.3176
    -3.2523  -3.2095  -3.1550  -3.0098  -2.9475  -2.8288  -2.7187  -2.6470
    -2.5648  -2.5290  -2.4792  -2.4316  -2.2832  -2.1530  -2.0982  -2.0501
    -2.0307  -1.9546  -1.9035  -1.8505  -1.7342  -1.6669  -1.6396  -1.5871
    -1.4633  -1.4335  -1.3694  -1.2502  -1.1673  -1.0789  -0.9678  -0.9430
    -0.8557  -0.7912  -0.7314  -0.5756  -0.5335  -0.4045   0.2875   0.5124
     0.8571   0.9087   1.0243   1.1459   1.2171   1.2748   1.4025   1.4434
     1.7129   1.9367   1.9843   2.1772   2.2278   2.3288   2.4820   2.7659
     2.8303   2.9462   3.3042   3.4473

          k = 0.0000 1.7798 0.0000 ( 85660 PWs)   bands (ev):

  -103.4172-103.3686-103.2720-103.2680-103.1238-102.8668 -68.7866 -68.7839
   -68.7176 -68.5550 -63.9724 -63.9474 -63.8543 -63.8521 -63.8483 -63.7461
   -63.6710 -63.6683 -63.6546 -63.6534 -63.6190 -63.5398 -63.5279 -63.5253
   -63.4871 -63.3636 -63.3189 -63.1626 -35.2637 -35.2614 -35.2452 -35.2429
   -35.2120 -35.1918 -35.1751 -35.1705 -35.1183 -35.1122 -35.0561 -34.9990
   -12.2948 -11.7006 -11.5531 -11.4993 -11.4247 -11.3262 -11.1793 -11.1713
   -11.0593 -11.0215  -6.1135  -5.9236  -5.8517  -5.7922  -5.3284  -5.1912
    -5.0235  -4.8713  -4.8444  -4.6020  -4.4940  -4.3848  -4.1637  -4.0100
    -3.9727  -3.7934  -3.6878  -3.6073  -3.5719  -3.5507  -3.4872  -3.4103
    -3.2905  -3.2141  -3.2059  -3.1148  -3.0176  -2.8317  -2.8097  -2.7308
    -2.6369  -2.5810  -2.4986  -2.4202  -2.3367  -2.1819  -2.1260  -2.1159
    -2.0400  -2.0114  -1.9504  -1.9238  -1.8932  -1.8129  -1.7136  -1.6682
    -1.5566  -1.5232  -1.3592  -1.3313  -1.2925  -1.2172  -1.1249  -1.0864
    -0.9740  -0.9518  -0.8427  -0.7330  -0.6804  -0.5026   0.1719   0.3673
     0.7622   0.9833   1.1434   1.1731   1.3173   1.5763   1.6389   1.7587
     1.7869   1.9074   2.0419   2.0784   2.2220   2.6225   2.6982   2.7431
     2.9967   3.0280   3.0981   3.2496

          k = 0.0000-2.2248 0.0000 ( 85634 PWs)   bands (ev):

  -103.4172-103.3687-103.2714-103.2686-103.1238-102.8668 -68.7865 -68.7838
   -68.7175 -68.5549 -63.9725 -63.9474 -63.8540 -63.8520 -63.8483 -63.7471
   -63.6675 -63.6666 -63.6576 -63.6556 -63.6190 -63.5377 -63.5293 -63.5252
   -63.4871 -63.3635 -63.3189 -63.1626 -35.2675 -35.2653 -35.2451 -35.2428
   -35.2161 -35.1915 -35.1746 -35.1701 -35.1178 -35.1116 -35.0607 -34.9985
   -12.2116 -11.4865 -11.4381 -11.3480 -11.2935 -11.2827 -11.2582 -11.1904
   -11.0239 -10.9869  -6.2297  -6.1267  -6.0576  -5.9951  -5.4301  -5.3398
    -5.0674  -4.9823  -4.6982  -4.6852  -4.5239  -4.2105  -3.9728  -3.9261
    -3.8593  -3.8182  -3.7974  -3.6036  -3.5285  -3.4893  -3.3931  -3.3741
    -3.3709  -3.1976  -3.1468  -3.1143  -3.0144  -2.9933  -2.9214  -2.7265
    -2.6397  -2.6123  -2.4429  -2.4258  -2.2438  -2.2034  -2.1689  -2.1301
    -2.1131  -2.0568  -1.9847  -1.9319  -1.8987  -1.8015  -1.7341  -1.7011
    -1.5923  -1.5762  -1.3620  -1.3486  -1.3181  -1.2817  -1.2303  -1.1373
    -1.0991  -1.0444  -0.9002  -0.8178  -0.6798  -0.5128   0.1481   0.3282
     0.7156   0.9990   1.1514   1.2093   1.3531   1.5601   1.6571   1.6897
     1.9814   1.9928   2.0257   2.2607   2.3157   2.4461   2.6718   2.7426
     2.9323   3.0665   3.1810   3.3106

          k =-0.5000 0.0000 0.0000 ( 85442 PWs)   bands (ev):

  -103.4175-103.3683-103.2746-103.2654-103.1238-102.8668 -68.7874 -68.7847
   -68.7184 -68.5557 -63.9718 -63.9464 -63.8573 -63.8518 -63.8478 -63.7345
   -63.6833 -63.6814 -63.6500 -63.6321 -63.6189 -63.5532 -63.5251 -63.5224
   -63.4864 -63.3636 -63.3189 -63.1617 -35.2537 -35.2514 -35.2191 -35.2169
   -35.2002 -35.1797 -35.1746 -35.1670 -35.1229 -35.1176 -35.0135 -35.0021
   -13.0675 -12.6606 -12.3258 -12.1430 -12.0374 -11.8676 -11.5662 -11.5429
   -11.3188 -11.2793  -6.3239  -5.9535  -5.7254  -5.5577  -5.3825  -5.2061
    -5.0741  -4.8251  -4.5864  -4.4112  -3.9081  -3.8655  -3.7721  -3.7176
    -3.6100  -3.5881  -3.5507  -3.4384  -3.3537  -3.3298  -3.1477  -3.0753
    -2.8746  -2.8159  -2.7038  -2.6548  -2.5387  -2.5217  -2.3943  -2.3404
    -2.2222  -2.2126  -2.1792  -2.0779  -2.0021  -1.9462  -1.8799  -1.7418
    -1.6833  -1.6682  -1.5465  -1.4976  -1.4688  -1.4353  -1.4137  -1.3436
    -1.2765  -1.1741  -1.1655  -1.0226  -0.8694  -0.7685  -0.7278  -0.6925
    -0.5429  -0.4526  -0.3614  -0.2824  -0.2594  -0.1051   0.0784   0.1579
     0.7012   0.7546   0.8982   1.0447   1.3630   1.4504   1.5714   1.6184
     1.6862   1.8581   2.0008   2.1062   2.4182   2.5151   2.8255   3.0088
     3.0118   3.1754   3.2117   3.3295

          k =-0.5000 0.4450 0.0000 ( 85420 PWs)   bands (ev):

  -103.4175-103.3683-103.2744-103.2656-103.1238-102.8668 -68.7873 -68.7846
   -68.7183 -68.5556 -63.9719 -63.9465 -63.8569 -63.8518 -63.8478 -63.7358
   -63.6825 -63.6800 -63.6502 -63.6339 -63.6189 -63.5519 -63.5251 -63.5227
   -63.4864 -63.3636 -63.3189 -63.1617 -35.2534 -35.2510 -35.2232 -35.2211
   -35.1997 -35.1792 -35.1742 -35.1713 -35.1224 -35.1171 -35.0176 -35.0022
   -12.9936 -12.5800 -12.2794 -12.0746 -11.9712 -11.8287 -11.5254 -11.5055
   -11.2877 -11.2484  -6.2405  -5.8808  -5.6533  -5.4825  -5.3325  -5.1383
    -5.0230  -4.7800  -4.5383  -4.3691  -4.0474  -3.9165  -3.8478  -3.8227
    -3.7007  -3.5633  -3.5174  -3.4451  -3.3860  -3.3465  -3.1892  -3.0701
    -3.0048  -2.8940  -2.8671  -2.7119  -2.6702  -2.5365  -2.4953  -2.4327
    -2.4128  -2.3138  -2.1634  -2.1336  -2.1083  -2.0079  -1.9619  -1.8651
    -1.8206  -1.7726  -1.6697  -1.5874  -1.5373  -1.4854  -1.4366  -1.4128
    -1.3259  -1.1968  -1.1274  -1.0550  -0.8948  -0.8593  -0.7312  -0.6469
    -0.6294  -0.5611  -0.4119  -0.3726  -0.1741   0.0032   0.1858   0.2733
     0.6154   0.6803   1.0190   1.1130   1.3343   1.3475   1.4291   1.5337
     1.6373   1.7991   1.9381   2.1624   2.2258   2.3950   2.6021   2.6934
     2.7538   2.9012   3.3078   3.4895

          k =-0.5000 0.8899 0.0000 ( 85558 PWs)   bands (ev):

  -103.4174-103.3684-103.2738-103.2662-103.1238-102.8668 -68.7871 -68.7844
   -68.7181 -68.5554 -63.9721 -63.9468 -63.8562 -63.8519 -63.8480 -63.7393
   -63.6801 -63.6766 -63.6513 -63.6390 -63.6190 -63.5485 -63.5252 -63.5239
   -63.4866 -63.3636 -63.3190 -63.1620 -35.2528 -35.2505 -35.2338 -35.2316
   -35.1990 -35.1822 -35.1780 -35.1730 -35.1211 -35.1156 -35.0292 -35.0015
   -12.7897 -12.3510 -12.1444 -11.8853 -11.7911 -11.7180 -11.4199 -11.4038
   -11.2043 -11.1693  -6.0328  -5.6993  -5.4695  -5.3059  -5.2255  -5.0076
    -4.9332  -4.8030  -4.4160  -4.3897  -4.2272  -4.1378  -4.0680  -4.0237
    -3.8583  -3.7353  -3.6399  -3.6143  -3.5323  -3.4838  -3.3573  -3.2356
    -3.1781  -3.1285  -3.0278  -2.8905  -2.8511  -2.6983  -2.6798  -2.5942
    -2.5296  -2.4636  -2.3989  -2.3017  -2.1720  -2.1000  -2.0620  -2.0009
    -1.9566  -1.9151  -1.7829  -1.6414  -1.5950  -1.5529  -1.5034  -1.4771
    -1.3616  -1.3170  -1.2760  -1.1942  -1.0756  -0.9935  -0.8793  -0.8061
    -0.7716  -0.5674  -0.5102  -0.3896  -0.2630  -0.1872   0.3668   0.5426
     0.6902   0.8130   0.9821   1.0253   1.2031   1.2936   1.3938   1.4812
     1.5057   1.6867   1.8996   1.9895   2.2031   2.4238   2.4543   2.5154
     2.6032   2.8192   3.6760   3.8082

          k =-0.5000 1.3349 0.0000 ( 85634 PWs)   bands (ev):

  -103.4173-103.3686-103.2729-103.2671-103.1238-102.8668 -68.7868 -68.7841
   -68.7178 -68.5552 -63.9723 -63.9472 -63.8552 -63.8520 -63.8482 -63.7432
   -63.6760 -63.6723 -63.6528 -63.6461 -63.6190 -63.5441 -63.5256 -63.5252
   -63.4869 -63.3636 -63.3190 -63.1624 -35.2555 -35.2532 -35.2434 -35.2412
   -35.2026 -35.1911 -35.1764 -35.1717 -35.1195 -35.1137 -35.0441 -35.0002
   -12.5187 -12.0182 -11.9251 -11.6379 -11.5827 -11.5221 -11.2895 -11.2774
   -11.0987 -11.0868  -5.9121  -5.6266  -5.3830  -5.2892  -5.2004  -5.1589
    -5.0870  -4.8594  -4.7019  -4.5550  -4.4236  -4.2960  -4.1673  -4.0497
    -4.0218  -3.9005  -3.8190  -3.7245  -3.6108  -3.5667  -3.5155  -3.3882
    -3.2373  -3.1248  -3.0657  -3.0124  -2.9302  -2.8622  -2.8000  -2.7162
    -2.5455  -2.5169  -2.4791  -2.4055  -2.3012  -2.2137  -2.1415  -2.0795
    -2.0199  -1.9890  -1.9246  -1.8100  -1.7255  -1.6373  -1.5852  -1.5304
    -1.4806  -1.4296  -1.3657  -1.3527  -1.1630  -1.0713  -0.9894  -0.9290
    -0.8481  -0.7580  -0.6885  -0.6209  -0.5545  -0.3785   0.2715   0.4898
     0.8111   1.0439   1.1536   1.1904   1.2503   1.3019   1.3203   1.5215
     1.6547   1.7336   1.9905   2.0087   2.4034   2.4850   2.5753   2.6670
     2.7081   2.7769   3.3345   3.5628

          k =-0.5000 1.7798 0.0000 ( 85628 PWs)   bands (ev):

  -103.4172-103.3686-103.2720-103.2680-103.1238-102.8668 -68.7866 -68.7839
   -68.7176 -68.5550 -63.9724 -63.9474 -63.8543 -63.8520 -63.8483 -63.7461
   -63.6710 -63.6683 -63.6545 -63.6533 -63.6189 -63.5398 -63.5278 -63.5253
   -63.4870 -63.3636 -63.3189 -63.1625 -35.2637 -35.2614 -35.2452 -35.2429
   -35.2120 -35.1918 -35.1751 -35.1705 -35.1183 -35.1122 -35.0561 -34.9990
   -12.2944 -11.6742 -11.6293 -11.4704 -11.3799 -11.3180 -11.2064 -11.1903
   -11.0496 -11.0179  -6.1381  -5.9993  -5.7765  -5.6825  -5.3435  -5.1570
    -5.1297  -4.9207  -4.8759  -4.5967  -4.4314  -4.3745  -4.2193  -4.0172
    -3.9611  -3.7910  -3.7246  -3.5953  -3.5642  -3.5324  -3.4176  -3.3368
    -3.2854  -3.2440  -3.1917  -3.1241  -2.9924  -2.8680  -2.7546  -2.7230
    -2.7028  -2.5896  -2.4619  -2.4353  -2.2899  -2.2699  -2.2232  -2.1039
    -2.0476  -2.0180  -1.9609  -1.9428  -1.9010  -1.7204  -1.6797  -1.6520
    -1.5524  -1.5071  -1.4272  -1.3380  -1.2644  -1.2127  -1.1227  -1.0672
    -1.0298  -0.9570  -0.8535  -0.7900  -0.6356  -0.5020   0.1738   0.3696
     0.7386   1.0572   1.1693   1.3737   1.4138   1.5353   1.5966   1.6611
     1.7534   1.8305   2.0069   2.1111   2.2712   2.3974   2.7175   2.8289
     2.9225   2.9897   3.1436   3.2406

          k =-0.5000-2.2248 0.0000 ( 85672 PWs)   bands (ev):

  -103.4172-103.3687-103.2714-103.2686-103.1238-102.8668 -68.7865 -68.7838
   -68.7175 -68.5549 -63.9725 -63.9475 -63.8540 -63.8521 -63.8483 -63.7472
   -63.6676 -63.6666 -63.6577 -63.6556 -63.6189 -63.5377 -63.5292 -63.5253
   -63.4871 -63.3636 -63.3189 -63.1627 -35.2675 -35.2653 -35.2451 -35.2428
   -35.2161 -35.1915 -35.1746 -35.1701 -35.1178 -35.1116 -35.0607 -34.9985
   -12.2116 -11.4831 -11.4403 -11.3527 -11.2959 -11.2797 -11.2546 -11.1924
   -11.0231 -10.9861  -6.3028  -6.2055  -5.9599  -5.8644  -5.4667  -5.2708
    -5.1466  -4.9376  -4.8290  -4.7389  -4.4611  -4.2145  -4.0292  -3.9890
    -3.8523  -3.7044  -3.6784  -3.6404  -3.5602  -3.4584  -3.3877  -3.3772
    -3.3306  -3.3079  -3.2245  -3.1491  -2.9917  -2.8372  -2.8204  -2.7259
    -2.6244  -2.5537  -2.5309  -2.4367  -2.2867  -2.2519  -2.1902  -2.1549
    -2.1196  -2.0775  -1.9895  -1.9047  -1.8726  -1.7925  -1.7275  -1.6411
    -1.6041  -1.5648  -1.4577  -1.3278  -1.2929  -1.2887  -1.2575  -1.1285
    -1.1081  -1.0455  -0.9353  -0.8162  -0.6556  -0.5249   0.1543   0.3378
     0.7076   1.0913   1.1147   1.3048   1.4067   1.4889   1.6632   1.6939
     1.9846   2.0384   2.0938   2.1235   2.2274   2.3225   2.7067   2.8116
     2.8489   2.8844   3.3183   3.4093

     the Fermi energy is     0.0348 ev

!    total energy              =   -9109.78525948 Ry
     total all-electron energy =     -9109.785259 Ry
     estimated scf accuracy    <          5.7E-09 Ry
     smearing contrib. (-TS)   =      -0.00005654 Ry
     internal energy E=F+TS    =   -9109.78520294 Ry

     The total energy is F=E-TS. E is the sum of the following terms:
     one-electron contribution =  -16376.96188588 Ry
     hartree contribution      =    8047.15337342 Ry
     xc contribution           =    -364.83904226 Ry
     ewald contribution        =    5852.55763285 Ry
     one-center paw contrib.   =   -6267.69528106 Ry

     convergence has been achieved in  28 iterations

     negative rho (up, down):  6.462E-02 0.000E+00

     Forces acting on atoms (cartesian axes, Ry/au):

     atom    1 type  1   force =    -0.00193776   -0.01711554   -0.00688684
     atom    2 type  1   force =    -0.00503255    0.01474550   -0.00832581
     atom    3 type  1   force =     0.02014703   -0.01595166   -0.00030025
     atom    4 type  1   force =    -0.00783213    0.01482358   -0.00990950
     atom    5 type  2   force =    -0.01618804   -0.01595041   -0.00339104
     atom    6 type  2   force =     0.01662580    0.01559415   -0.00583810
     atom    7 type  2   force =    -0.00200253   -0.01560025    0.00395464
     atom    8 type  2   force =    -0.03733026    0.01756631    0.00707633
     atom    9 type  2   force =     0.00080325   -0.00782038    0.00705484
     atom   10 type  2   force =     0.05044237    0.00725568   -0.03282121
     atom   11 type  3   force =    -0.03573023    0.01121969    0.01719366
     atom   12 type  3   force =    -0.00151624   -0.01089350   -0.01485054
     atom   13 type  3   force =    -0.00295348   -0.00804537    0.01078124
     atom   14 type  3   force =     0.04645836    0.00839032   -0.00816995
     atom   15 type  3   force =     0.01354715    0.01140167    0.01557508
     atom   16 type  3   force =    -0.00544136   -0.01167890   -0.01050428
     atom   17 type  3   force =    -0.00185357   -0.00807922    0.01132578
     atom   18 type  3   force =    -0.06123653    0.00779232    0.02627174
     atom   19 type  3   force =     0.02836661   -0.00567664    0.01182641
     atom   20 type  3   force =     0.00266412    0.00802263   -0.01006219

     Total force =     0.140653     Total SCF correction =     0.000264


     Computing stress (Cartesian axis) and pressure


     negative rho (up, down):  6.462E-02 0.000E+00
          total   stress  (Ry/bohr**3)                   (kbar)     P=       -2.62
   0.00009341   0.00000036  -0.00000809           13.74        0.05       -1.19
   0.00000036  -0.00007967   0.00000898            0.05      -11.72        1.32
  -0.00000809   0.00000898  -0.00006713           -1.19        1.32       -9.88

     Energy error            =      2.9E-01 Ry
     Gradient error          =      6.1E-02 Ry/Bohr

     number of scf cycles    =   2
     number of bfgs steps    =   1

     energy             old  =   -9109.5000436058 Ry
     energy             new  =   -9109.7852594792 Ry

     CASE: energy            _new < energy            _old

     new trust radius        =       0.0809063558 bohr
     new conv_thr            =       0.0000000061 Ry


ATOMIC_POSITIONS (angstrom)
Ta           15.1774909160        0.8845521287       12.6034512439
Ta            6.5701395949        2.7628060799       12.5820034300
Ta            2.3014907011        0.8947719604       12.4528621735
Ta           11.0881917207        2.7631517986       12.5777645059
Ni           12.8516619924        0.8947822914       11.7610863370
Ni            4.0545663315        2.7648233852       13.2650446527
Ni            4.7877864964        0.8947007720       11.7667913055
Ni           13.5753543253        2.7659872186       13.2800959009
Ni            8.8261135122        0.9056357663       12.3766367519
Ni            0.1590715654        2.7628638954       12.5460219927
Te           14.1619148183        2.7605573121       10.5483580066
Te            5.3893124814        0.9011484296       14.4836384401
Te           10.5961329101        0.9050849623       10.5337267380
Te            1.8496809410        2.7551766808       14.5060304797
Te            3.4526616470        2.7589368660       10.5537045582
Te           12.2640014185        0.9005571391       14.4863941902
Te            7.0592473589        0.9054291044       10.5339478406
Te           15.7299615843        2.7550813176       14.6428415879
Te            0.2060277957        0.9067071582       10.6704749511
Te            8.8277542523        2.7541781877       14.1873759134



     Writing config-only to output data dir /ddn/data/physics/eamoujaes/2D-Ta2Ni3Te5/ELASTIC/C12/OUT/ta2ni3te5.save/
     NEW-OLD atomic charge density approx. for the potential

     negative rho (up, down):  6.504E-02 0.000E+00

     total cpu time spent up to now is     1360.0 secs

     Self-consistent Calculation

     iteration #  1     ecut=    60.00 Ry     beta= 0.20
     Davidson diagonalization with overlap
     ethr =  1.00E-06,  avg # of iterations =  9.4

     negative rho (up, down):  6.492E-02 0.000E+00

     total cpu time spent up to now is     1399.3 secs

     total energy              =   -9109.76185397 Ry
     estimated scf accuracy    <       0.11143177 Ry

     iteration #  2     ecut=    60.00 Ry     beta= 0.20
     Davidson diagonalization with overlap
     ethr =  5.07E-05,  avg # of iterations =  3.8

     negative rho (up, down):  6.491E-02 0.000E+00

     total cpu time spent up to now is     1416.0 secs

     total energy              =   -9109.69831587 Ry
     estimated scf accuracy    <       2.53682621 Ry

     iteration #  3     ecut=    60.00 Ry     beta= 0.20
     Davidson diagonalization with overlap
     ethr =  5.07E-05,  avg # of iterations =  2.8

     negative rho (up, down):  6.492E-02 0.000E+00

     total cpu time spent up to now is     1431.7 secs

     total energy              =   -9109.80156580 Ry
     estimated scf accuracy    <       0.08373521 Ry

     iteration #  4     ecut=    60.00 Ry     beta= 0.20
     Davidson diagonalization with overlap
     ethr =  3.81E-05,  avg # of iterations =  1.0

     negative rho (up, down):  6.490E-02 0.000E+00

     total cpu time spent up to now is     1445.4 secs

     total energy              =   -9109.80512878 Ry
     estimated scf accuracy    <       0.00304640 Ry

     iteration #  5     ecut=    60.00 Ry     beta= 0.20
     Davidson diagonalization with overlap
     ethr =  1.38E-06,  avg # of iterations =  3.2

     negative rho (up, down):  6.488E-02 0.000E+00

     total cpu time spent up to now is     1465.4 secs

     total energy              =   -9109.80512908 Ry
     estimated scf accuracy    <       0.00238019 Ry

     iteration #  6     ecut=    60.00 Ry     beta= 0.20
     Davidson diagonalization with overlap
     ethr =  1.08E-06,  avg # of iterations =  2.0

     negative rho (up, down):  6.485E-02 0.000E+00

     total cpu time spent up to now is     1480.3 secs

     total energy              =   -9109.80509146 Ry
     estimated scf accuracy    <       0.00194231 Ry

     iteration #  7     ecut=    60.00 Ry     beta= 0.20
     Davidson diagonalization with overlap
     ethr =  8.83E-07,  avg # of iterations =  1.0

     negative rho (up, down):  6.481E-02 0.000E+00

     total cpu time spent up to now is     1494.1 secs

     total energy              =   -9109.80482239 Ry
     estimated scf accuracy    <       0.00288026 Ry

     iteration #  8     ecut=    60.00 Ry     beta= 0.20
     Davidson diagonalization with overlap
     ethr =  8.83E-07,  avg # of iterations =  1.0

     negative rho (up, down):  6.476E-02 0.000E+00

     total cpu time spent up to now is     1507.9 secs

     total energy              =   -9109.80455857 Ry
     estimated scf accuracy    <       0.00169336 Ry

     iteration #  9     ecut=    60.00 Ry     beta= 0.20
     Davidson diagonalization with overlap
     ethr =  7.70E-07,  avg # of iterations =  1.0

     negative rho (up, down):  6.475E-02 0.000E+00

     total cpu time spent up to now is     1521.7 secs

     total energy              =   -9109.80455992 Ry
     estimated scf accuracy    <       0.00044034 Ry

     iteration # 10     ecut=    60.00 Ry     beta= 0.20
     Davidson diagonalization with overlap
     ethr =  2.00E-07,  avg # of iterations =  1.2

     negative rho (up, down):  6.473E-02 0.000E+00

     total cpu time spent up to now is     1536.2 secs

     total energy              =   -9109.80453907 Ry
     estimated scf accuracy    <       0.00020747 Ry

     iteration # 11     ecut=    60.00 Ry     beta= 0.20
     Davidson diagonalization with overlap
     ethr =  9.43E-08,  avg # of iterations =  1.7

     negative rho (up, down):  6.472E-02 0.000E+00

     total cpu time spent up to now is     1551.0 secs

     total energy              =   -9109.80453830 Ry
     estimated scf accuracy    <       0.00011355 Ry

     iteration # 12     ecut=    60.00 Ry     beta= 0.20
     Davidson diagonalization with overlap
     ethr =  5.16E-08,  avg # of iterations =  1.0

     negative rho (up, down):  6.471E-02 0.000E+00

     total cpu time spent up to now is     1569.1 secs

     total energy              =   -9109.80453417 Ry
     estimated scf accuracy    <       0.00005097 Ry

     iteration # 13     ecut=    60.00 Ry     beta= 0.20
     Davidson diagonalization with overlap
     ethr =  2.32E-08,  avg # of iterations =  1.9

     negative rho (up, down):  6.469E-02 0.000E+00

     total cpu time spent up to now is     1583.8 secs

     total energy              =   -9109.80453185 Ry
     estimated scf accuracy    <       0.00001652 Ry

     iteration # 14     ecut=    60.00 Ry     beta= 0.20
     Davidson diagonalization with overlap
     ethr =  7.51E-09,  avg # of iterations =  2.4

     negative rho (up, down):  6.469E-02 0.000E+00

     total cpu time spent up to now is     1599.9 secs

     total energy              =   -9109.80453341 Ry
     estimated scf accuracy    <       0.00000310 Ry

     iteration # 15     ecut=    60.00 Ry     beta= 0.20
     Davidson diagonalization with overlap
     ethr =  1.41E-09,  avg # of iterations =  2.5

     negative rho (up, down):  6.469E-02 0.000E+00

     total cpu time spent up to now is     1619.2 secs

     total energy              =   -9109.80453384 Ry
     estimated scf accuracy    <       0.00000059 Ry

     iteration # 16     ecut=    60.00 Ry     beta= 0.20
     Davidson diagonalization with overlap
     ethr =  2.67E-10,  avg # of iterations =  4.1

     negative rho (up, down):  6.469E-02 0.000E+00

     total cpu time spent up to now is     1635.7 secs

     total energy              =   -9109.80453395 Ry
     estimated scf accuracy    <       0.00000052 Ry

     iteration # 17     ecut=    60.00 Ry     beta= 0.20
     Davidson diagonalization with overlap
     ethr =  2.38E-10,  avg # of iterations =  1.9

     negative rho (up, down):  6.469E-02 0.000E+00

     total cpu time spent up to now is     1650.6 secs

     total energy              =   -9109.80453399 Ry
     estimated scf accuracy    <       0.00000047 Ry

     iteration # 18     ecut=    60.00 Ry     beta= 0.20
     Davidson diagonalization with overlap
     ethr =  2.12E-10,  avg # of iterations =  1.0

     negative rho (up, down):  6.470E-02 0.000E+00

     total cpu time spent up to now is     1664.5 secs

     total energy              =   -9109.80453397 Ry
     estimated scf accuracy    <       0.00000009 Ry

     iteration # 19     ecut=    60.00 Ry     beta= 0.20
     Davidson diagonalization with overlap
     ethr =  4.27E-11,  avg # of iterations =  2.0

     negative rho (up, down):  6.470E-02 0.000E+00

     total cpu time spent up to now is     1679.6 secs

     total energy              =   -9109.80453396 Ry
     estimated scf accuracy    <       0.00000005 Ry

     iteration # 20     ecut=    60.00 Ry     beta= 0.20
     Davidson diagonalization with overlap
     ethr =  2.24E-11,  avg # of iterations =  2.0

     negative rho (up, down):  6.470E-02 0.000E+00

     total cpu time spent up to now is     1706.8 secs

     total energy              =   -9109.80453397 Ry
     estimated scf accuracy    <       0.00000004 Ry

     iteration # 21     ecut=    60.00 Ry     beta= 0.20
     Davidson diagonalization with overlap
     ethr =  1.80E-11,  avg # of iterations =  1.0

     negative rho (up, down):  6.470E-02 0.000E+00

     total cpu time spent up to now is     1720.6 secs

     total energy              =   -9109.80453397 Ry
     estimated scf accuracy    <          9.7E-09 Ry

     iteration # 22     ecut=    60.00 Ry     beta= 0.20
     Davidson diagonalization with overlap
     ethr =  4.39E-12,  avg # of iterations =  2.2

     negative rho (up, down):  6.470E-02 0.000E+00

     total cpu time spent up to now is     1735.6 secs

     total energy              =   -9109.80453397 Ry
     estimated scf accuracy    <          8.0E-09 Ry

[...]
   -63.4057 -63.4030 -63.2975 -63.2924 -35.2135 -35.2118 -35.2115 -35.2091
   -35.1768 -35.1764 -35.1756 -35.1716 -35.1321 -35.1276 -35.1258 -35.1209
   -12.6450 -12.3106 -12.2565 -11.9447 -11.7541 -11.7433 -11.5036 -11.5001
   -11.3868 -11.2551  -5.9388  -5.6252  -5.4534  -5.4272  -5.2492  -5.1609
    -5.0482  -4.7369  -4.6058  -4.3442  -4.2786  -4.1879  -4.0928  -4.0410
    -3.9458  -3.9401  -3.9134  -3.7789  -3.6661  -3.5863  -3.3617  -3.2655
    -3.1980  -3.1510  -3.0217  -3.0143  -2.9998  -2.6897  -2.6854  -2.5698
    -2.5655  -2.4837  -2.3828  -2.3277  -2.2544  -2.1078  -2.0728  -2.0118
    -1.9820  -1.8707  -1.8558  -1.6964  -1.6889  -1.6438  -1.5868  -1.4980
    -1.4775  -1.4581  -1.3731  -1.0919  -0.9350  -0.9299  -0.8383  -0.8276
    -0.7908  -0.6017  -0.5949  -0.4602  -0.4218  -0.3620   0.4906   0.5526
     0.5640   0.9638   1.0189   1.0312   1.2672   1.2726   1.3004   1.3583
     1.8202   1.8275   1.9080   2.0786   2.1465   2.4122   2.4280   2.5698
     2.6614   2.9176   3.7178   3.8779

          k = 0.0000 1.3349 0.0000 ( 85592 PWs)   bands (ev):

  -103.4161-103.4096-103.4039-103.4010-102.9582-102.9552 -68.7123 -68.7118
   -68.7106 -68.7070 -63.9927 -63.9852 -63.9844 -63.9794 -63.8284 -63.8251
   -63.7942 -63.7941 -63.6827 -63.6780 -63.6617 -63.6611 -63.4192 -63.4182
   -63.4056 -63.4030 -63.2978 -63.2927 -35.2115 -35.2098 -35.2096 -35.2072
   -35.1917 -35.1910 -35.1904 -35.1863 -35.1298 -35.1262 -35.1241 -35.1199
   -12.2839 -11.9826 -11.9704 -11.7694 -11.6431 -11.5821 -11.3639 -11.2995
   -11.2890 -11.1844  -5.9007  -5.6104  -5.5184  -5.5169  -5.1495  -5.1171
    -5.0865  -4.8874  -4.7466  -4.6110  -4.4476  -4.4033  -4.2371  -4.1005
    -4.0199  -4.0034  -3.9726  -3.7898  -3.7259  -3.6501  -3.4713  -3.3771
    -3.3729  -3.2788  -3.1392  -3.0511  -3.0420  -2.8989  -2.7239  -2.6905
    -2.6684  -2.6531  -2.4899  -2.4168  -2.2446  -2.1992  -2.1743  -2.1213
    -2.1059  -2.0323  -1.9727  -1.8607  -1.7403  -1.7225  -1.7159  -1.6084
    -1.5471  -1.5242  -1.5076  -1.2697  -1.1138  -1.1117  -0.9666  -0.8990
    -0.8660  -0.8505  -0.7752  -0.6215  -0.5841  -0.5092   0.3534   0.4538
     0.9197   0.9829   1.1080   1.1471   1.2622   1.2750   1.4123   1.4257
     1.7434   1.8779   2.0522   2.2199   2.2571   2.4053   2.5452   2.7874
     2.8102   2.9727   3.4518   3.4950

          k = 0.0000 1.7798 0.0000 ( 85660 PWs)   bands (ev):

  -103.4157-103.4082-103.4053-103.4014-102.9582-102.9552 -68.7121 -68.7115
   -68.7104 -68.7068 -63.9927 -63.9852 -63.9846 -63.9795 -63.8233 -63.8188
   -63.8028 -63.8017 -63.6787 -63.6729 -63.6642 -63.6636 -63.4192 -63.4182
   -63.4057 -63.4030 -63.2981 -63.2930 -35.2100 -35.2082 -35.2081 -35.2057
   -35.2038 -35.2028 -35.2023 -35.1982 -35.1278 -35.1251 -35.1226 -35.1192
   -11.8841 -11.7551 -11.6168 -11.5678 -11.5377 -11.4377 -11.2871 -11.2769
   -11.1352 -11.1312  -6.1104  -6.0288  -5.9772  -5.9535  -5.2587  -5.2105
    -5.1225  -5.0209  -4.8220  -4.6806  -4.4237  -4.3102  -4.2740  -4.0393
    -3.9840  -3.8380  -3.6676  -3.6461  -3.6362  -3.5982  -3.4531  -3.4100
    -3.3537  -3.3460  -3.2624  -3.2189  -3.0356  -2.9548  -2.8953  -2.8056
    -2.6702  -2.6156  -2.5953  -2.5231  -2.2998  -2.2282  -2.2071  -2.1939
    -2.1193  -2.0956  -2.0109  -2.0081  -1.9183  -1.9076  -1.8085  -1.7048
    -1.5240  -1.5059  -1.5025  -1.4897  -1.2652  -1.2015  -1.1193  -1.1067
    -1.0125  -0.9895  -0.9883  -0.7083  -0.6831  -0.6569   0.2432   0.3112
     1.0428   1.0867   1.1079   1.1160   1.3099   1.5692   1.6380   1.6657
     1.7953   1.9773   2.0237   2.1703   2.2241   2.6262   2.7356   2.8305
     3.0314   3.1559   3.2210   3.3072

          k = 0.0000-2.2248 0.0000 ( 85634 PWs)   bands (ev):

  -103.4156-103.4069-103.4066-103.4015-102.9582-102.9552 -68.7120 -68.7115
   -68.7103 -68.7067 -63.9927 -63.9852 -63.9846 -63.9795 -63.8200 -63.8113
   -63.8109 -63.8056 -63.6769 -63.6683 -63.6681 -63.6646 -63.4192 -63.4181
   -63.4057 -63.4030 -63.2981 -63.2930 -35.2093 -35.2084 -35.2076 -35.2074
   -35.2073 -35.2069 -35.2050 -35.2028 -35.1270 -35.1248 -35.1220 -35.1190
   -11.6675 -11.6654 -11.4505 -11.4461 -11.4132 -11.4086 -11.3312 -11.3297
   -11.1011 -11.1002  -6.2156  -6.2113  -6.1964  -6.1938  -5.3902  -5.3890
    -5.0702  -5.0676  -4.8427  -4.8387  -4.2111  -4.2102  -3.9924  -3.9877
    -3.9256  -3.9246  -3.5988  -3.5943  -3.5054  -3.5015  -3.4605  -3.4584
    -3.3811  -3.3798  -3.1603  -3.1583  -3.1445  -3.1407  -2.9467  -2.9411
    -2.6130  -2.6104  -2.5291  -2.5270  -2.2652  -2.2628  -2.2612  -2.2589
    -2.2074  -2.2017  -1.9715  -1.9686  -1.9528  -1.9438  -1.7828  -1.7802
    -1.5547  -1.5502  -1.4387  -1.4385  -1.2754  -1.2718  -1.2422  -1.2405
    -1.1998  -1.1974  -0.8838  -0.8788  -0.6559  -0.6505   0.2450   0.2502
     1.0601   1.0618   1.1538   1.1551   1.3680   1.3757   1.6582   1.6638
     2.0786   2.0825   2.1034   2.1077   2.3829   2.3930   2.7688   2.7791
     3.0880   3.0894   3.3146   3.3193

          k =-0.5000 0.0000 0.0000 ( 85442 PWs)   bands (ev):

  -103.4170-103.4115-103.4020-103.4001-102.9582-102.9552 -68.7129 -68.7124
   -68.7111 -68.7076 -63.9922 -63.9848 -63.9839 -63.9789 -63.8365 -63.8338
   -63.7795 -63.7789 -63.6918 -63.6878 -63.6587 -63.6573 -63.4192 -63.4181
   -63.4057 -63.4030 -63.2972 -63.2921 -35.2156 -35.2142 -35.2134 -35.2113
   -35.1601 -35.1600 -35.1591 -35.1550 -35.1337 -35.1318 -35.1252 -35.1228
   -12.8702 -12.8691 -12.1734 -12.1708 -12.0321 -12.0294 -11.6424 -11.6397
   -11.4074 -11.4059  -6.0851  -6.0822  -5.6868  -5.6836  -5.3376  -5.3292
    -4.9882  -4.9858  -4.6007  -4.5989  -3.9010  -3.9000  -3.8601  -3.8569
    -3.7460  -3.7397  -3.5422  -3.5418  -3.5079  -3.5059  -3.0726  -3.0648
    -3.0523  -3.0493  -2.7162  -2.7106  -2.5993  -2.5968  -2.3348  -2.3315
    -2.3130  -2.3093  -2.1966  -2.1929  -2.0358  -2.0341  -1.7071  -1.7045
    -1.6502  -1.6484  -1.6159  -1.6085  -1.4532  -1.4452  -1.3994  -1.3955
    -1.3050  -1.3032  -1.1087  -1.1038  -0.8378  -0.8347  -0.8271  -0.8266
    -0.5076  -0.5047  -0.3674  -0.3636  -0.2403  -0.2368   0.1137   0.1144
     0.7454   0.7495   1.0640   1.0656   1.4558   1.4576   1.5757   1.5853
     1.7764   1.7787   2.0816   2.0877   2.4506   2.4567   3.0338   3.0392
     3.1633   3.1708   3.3442   3.3483

          k =-0.5000 0.4450 0.0000 ( 85420 PWs)   bands (ev):

  -103.4169-103.4113-103.4022-103.4002-102.9582-102.9552 -68.7128 -68.7123
   -68.7110 -68.7075 -63.9923 -63.9849 -63.9840 -63.9790 -63.8355 -63.8328
   -63.7814 -63.7809 -63.6905 -63.6864 -63.6590 -63.6577 -63.4192 -63.4181
   -63.4056 -63.4030 -63.2972 -63.2922 -35.2150 -35.2135 -35.2128 -35.2107
   -35.1647 -35.1646 -35.1636 -35.1596 -35.1331 -35.1312 -35.1249 -35.1224
   -12.7873 -12.7862 -12.1053 -12.1027 -11.9939 -11.9913 -11.6038 -11.6012
   -11.3766 -11.3751  -6.0095  -6.0068  -5.6101  -5.6071  -5.2765  -5.2683
    -4.9488  -4.9465  -4.5568  -4.5547  -4.0206  -4.0194  -3.9720  -3.9702
    -3.7283  -3.7236  -3.5474  -3.5463  -3.4944  -3.4922  -3.1814  -3.1791
    -3.0550  -3.0494  -2.8607  -2.8568  -2.6571  -2.6543  -2.5577  -2.5522
    -2.3052  -2.3033  -2.2259  -2.2244  -2.0834  -2.0810  -1.9097  -1.9065
    -1.7947  -1.7886  -1.6900  -1.6873  -1.4984  -1.4964  -1.4563  -1.4544
    -1.3255  -1.3234  -1.1382  -1.1366  -0.8876  -0.8857  -0.6929  -0.6888
    -0.6266  -0.6257  -0.5070  -0.5062  -0.1096  -0.1059   0.2162   0.2177
     0.6733   0.6760   1.1412   1.1446   1.4030   1.4054   1.4880   1.4945
     1.7174   1.7227   2.0489   2.0557   2.3572   2.3625   2.6896   2.6939
     2.8330   2.8371   3.4533   3.4579

          k =-0.5000 0.8899 0.0000 ( 85558 PWs)   bands (ev):

  -103.4165-103.4106-103.4029-103.4005-102.9582-102.9552 -68.7125 -68.7121
   -68.7108 -68.7073 -63.9925 -63.9851 -63.9842 -63.9792 -63.8329 -63.8300
   -63.7868 -63.7864 -63.6871 -63.6828 -63.6601 -63.6590 -63.4192 -63.4182
   -63.4057 -63.4030 -63.2975 -63.2925 -35.2135 -35.2119 -35.2113 -35.2091
   -35.1768 -35.1764 -35.1756 -35.1716 -35.1314 -35.1295 -35.1240 -35.1215
   -12.5507 -12.5496 -11.9173 -11.9151 -11.8885 -11.8865 -11.5035 -11.5013
   -11.2940 -11.2926  -5.8275  -5.8256  -5.4158  -5.4136  -5.1579  -5.1511
    -4.9580  -4.9557  -4.4976  -4.4950  -4.2332  -4.2327  -4.1808  -4.1788
    -3.7899  -3.7873  -3.7032  -3.6995  -3.6144  -3.6131  -3.3325  -3.3277
    -3.3052  -3.3037  -3.0055  -3.0013  -2.8119  -2.8050  -2.7247  -2.7229
    -2.5031  -2.5018  -2.4114  -2.4097  -2.1634  -2.1601  -2.0567  -2.0562
    -1.9421  -1.9415  -1.7668  -1.7643  -1.5854  -1.5817  -1.5225  -1.5213
    -1.4462  -1.4443  -1.2756  -1.2720  -1.0648  -1.0639  -0.8205  -0.8149
    -0.7041  -0.7021  -0.4575  -0.4568  -0.2994  -0.2960   0.4361   0.4380
     0.7638   0.7668   1.0494   1.0508   1.3268   1.3298   1.5097   1.5168
     1.5656   1.5689   1.9412   1.9460   2.3660   2.3677   2.5082   2.5115
     2.6942   2.7010   3.8026   3.8049

          k =-0.5000 1.3349 0.0000 ( 85634 PWs)   bands (ev):

  -103.4161-103.4096-103.4039-103.4010-102.9582-102.9552 -68.7123 -68.7118
   -68.7106 -68.7070 -63.9926 -63.9852 -63.9844 -63.9794 -63.8285 -63.8251
   -63.7942 -63.7942 -63.6827 -63.6781 -63.6617 -63.6611 -63.4192 -63.4182
   -63.4057 -63.4030 -63.2979 -63.2928 -35.2115 -35.2099 -35.2095 -35.2072
   -35.1917 -35.1910 -35.1904 -35.1863 -35.1294 -35.1274 -35.1230 -35.1203
   -12.2016 -12.2006 -11.7482 -11.7456 -11.6614 -11.6587 -11.3838 -11.3820
   -11.1939 -11.1926  -5.7880  -5.7872  -5.4078  -5.4057  -5.2348  -5.2335
    -5.0677  -5.0662  -4.5776  -4.5772  -4.4837  -4.4833  -4.1246  -4.1222
    -3.9780  -3.9746  -3.8768  -3.8752  -3.6321  -3.6301  -3.5391  -3.5349
    -3.2292  -3.2275  -3.0725  -3.0678  -2.9999  -2.9943  -2.8136  -2.8115
    -2.5843  -2.5827  -2.5132  -2.5103  -2.2461  -2.2451  -2.1512  -2.1453
    -2.1037  -2.1020  -1.8955  -1.8930  -1.6839  -1.6793  -1.6576  -1.6455
    -1.5202  -1.5186  -1.4641  -1.4607  -1.0709  -1.0696  -0.9871  -0.9840
    -0.8032  -0.8025  -0.7228  -0.7221  -0.5270  -0.5251   0.3775   0.3789
     1.0145   1.0153   1.1650   1.1664   1.3014   1.3027   1.4519   1.4541
     1.7227   1.7290   1.9933   2.0007   2.5544   2.5589   2.5929   2.5987
     2.7475   2.7512   3.5392   3.5423

          k =-0.5000 1.7798 0.0000 ( 85628 PWs)   bands (ev):

  -103.4157-103.4082-103.4053-103.4014-102.9582-102.9552 -68.7121 -68.7115
   -68.7104 -68.7068 -63.9927 -63.9852 -63.9846 -63.9795 -63.8232 -63.8187
   -63.8027 -63.8016 -63.6787 -63.6729 -63.6642 -63.6636 -63.4192 -63.4182
   -63.4056 -63.4030 -63.2981 -63.2930 -35.2100 -35.2083 -35.2080 -35.2057
   -35.2038 -35.2028 -35.2023 -35.1982 -35.1277 -35.1255 -35.1222 -35.1194
   -11.8322 -11.8314 -11.6043 -11.6021 -11.4471 -11.4441 -11.3077 -11.3059
   -11.1279 -11.1269  -6.1462  -6.1447  -5.8404  -5.8353  -5.3018  -5.3010
    -5.0900  -5.0865  -4.7491  -4.7462  -4.3801  -4.3773  -4.1720  -4.1686
    -3.8673  -3.8657  -3.7255  -3.7237  -3.5456  -3.5406  -3.4359  -3.4349
    -3.3244  -3.3225  -3.1873  -3.1846  -3.0158  -3.0108  -2.8267  -2.8260
    -2.7445  -2.7433  -2.4677  -2.4663  -2.3744  -2.3734  -2.2226  -2.2190
    -2.1102  -2.1092  -2.0080  -2.0060  -1.8675  -1.8629  -1.7243  -1.7111
    -1.5434  -1.5398  -1.4959  -1.4955  -1.2026  -1.2013  -1.1651  -1.1636
    -1.0167  -1.0131  -0.8856  -0.8828  -0.6277  -0.6232   0.2742   0.2779
     0.9960   0.9988   1.3461   1.3466   1.4120   1.4171   1.6091   1.6110
     1.8702   1.8714   2.0512   2.0569   2.3361   2.3392   2.8658   2.8703
     2.9830   2.9899   3.2353   3.2390

          k =-0.5000-2.2248 0.0000 ( 85672 PWs)   bands (ev):

  -103.4156-103.4069-103.4066-103.4015-102.9582-102.9552 -68.7120 -68.7115
   -68.7103 -68.7067 -63.9928 -63.9852 -63.9847 -63.9796 -63.8201 -63.8114
   -63.8110 -63.8057 -63.6769 -63.6683 -63.6681 -63.6646 -63.4192 -63.4182
   -63.4056 -63.4030 -63.2982 -63.2931 -35.2093 -35.2084 -35.2076 -35.2074
   -35.2073 -35.2069 -35.2050 -35.2028 -35.1270 -35.1248 -35.1220 -35.1190
   -11.6672 -11.6651 -11.4457 -11.4413 -11.4199 -11.4154 -11.3304 -11.3294
   -11.1000 -11.0990  -6.3460  -6.3439  -6.0183  -6.0121  -5.4352  -5.4347
    -5.0330  -5.0316  -4.9089  -4.9034  -4.1564  -4.1533  -4.1450  -4.1404
    -3.7663  -3.7653  -3.6219  -3.6178  -3.5511  -3.5474  -3.4074  -3.4043
    -3.3855  -3.3833  -3.3236  -3.3221  -2.9032  -2.8999  -2.8967  -2.8941
    -2.7111  -2.7071  -2.5165  -2.5126  -2.3628  -2.3622  -2.2807  -2.2733
    -2.2059  -2.2049  -1.9364  -1.9342  -1.9061  -1.9020  -1.7516  -1.7370
    -1.6111  -1.6102  -1.4397  -1.4396  -1.2997  -1.2992  -1.2215  -1.2172
    -1.2082  -1.2045  -0.8905  -0.8865  -0.6574  -0.6512   0.2506   0.2554
     1.0008   1.0024   1.2964   1.2971   1.3818   1.3861   1.6558   1.6615
     2.0892   2.0931   2.1363   2.1413   2.2197   2.2283   2.8556   2.8589
     2.9030   2.9133   3.4318   3.4382

     the Fermi energy is    -0.0249 ev

!    total energy              =   -9109.85168190 Ry
     total all-electron energy =     -9109.851682 Ry
     estimated scf accuracy    <          5.6E-11 Ry
     smearing contrib. (-TS)   =      -0.00000004 Ry
     internal energy E=F+TS    =   -9109.85168185 Ry

     The total energy is F=E-TS. E is the sum of the following terms:
     one-electron contribution =  -16416.10644975 Ry
     hartree contribution      =    8066.52999878 Ry
     xc contribution           =    -365.00627140 Ry
     ewald contribution        =    5872.44486311 Ry
     one-center paw contrib.   =   -6267.71382260 Ry

     convergence has been achieved in  18 iterations

     negative rho (up, down):  6.526E-02 0.000E+00

     Forces acting on atoms (cartesian axes, Ry/au):

     atom    1 type  1   force =     0.00019925    0.00023343   -0.00032903
     atom    2 type  1   force =    -0.00013849   -0.00028707   -0.00032210
     atom    3 type  1   force =    -0.00039080    0.00030772    0.00008584
     atom    4 type  1   force =    -0.00037078   -0.00037948    0.00005984
     atom    5 type  2   force =    -0.00063304    0.00077804    0.00048702
     atom    6 type  2   force =     0.00034612   -0.00055759    0.00047695
     atom    7 type  2   force =     0.00070153    0.00054973    0.00051747
     atom    8 type  2   force =     0.00079210   -0.00062149    0.00041037
     atom    9 type  2   force =    -0.00052219   -0.00013988   -0.00074880
     atom   10 type  2   force =    -0.00056685    0.00024095   -0.00019240
     atom   11 type  3   force =    -0.00001299   -0.00050032   -0.00026677
     atom   12 type  3   force =     0.00056099    0.00033652    0.00025799
     atom   13 type  3   force =     0.00039348    0.00013822   -0.00071068
     atom   14 type  3   force =     0.00010112   -0.00013563    0.00012562
     atom   15 type  3   force =     0.00016138   -0.00036770    0.00013686
     atom   16 type  3   force =     0.00023802    0.00037515    0.00025448
     atom   17 type  3   force =     0.00047649    0.00011095    0.00019312
     atom   18 type  3   force =    -0.00056557   -0.00009761    0.00034017
     atom   19 type  3   force =    -0.00080876   -0.00026117   -0.00045913
     atom   20 type  3   force =     0.00003900    0.00027722   -0.00031681

     Total force =     0.003190     Total SCF correction =     0.000060


     Computing stress (Cartesian axis) and pressure


     negative rho (up, down):  6.526E-02 0.000E+00
          total   stress  (Ry/bohr**3)                   (kbar)     P=       -0.03
   0.00009097  -0.00000003   0.00000006           13.38       -0.00        0.01
  -0.00000003  -0.00005344   0.00000019           -0.00       -7.86        0.03
   0.00000006   0.00000019  -0.00003823            0.01        0.03       -5.62

     Energy error            =      2.4E-05 Ry
     Gradient error          =      8.1E-04 Ry/Bohr

     bfgs converged in  32 scf cycles and  31 bfgs steps
     (criteria: energy <  1.0E-04 Ry, force <  1.0E-03 Ry/Bohr)

     End of BFGS Geometry Optimization

     Final energy             =   -9109.8516818990 Ry

     File /ddn/data/physics/eamoujaes/2D-Ta2Ni3Te5/ELASTIC/C12/OUT/ta2ni3te5.bfgs deleted, as requested
Begin final coordinates

ATOMIC_POSITIONS (angstrom)
Ta           15.1074948553        0.8778213068       12.5773470346
Ta            6.6364234445        2.7822133736       12.4597247534
Ta            2.4834926698        0.8775594678       12.5692681091
Ta           10.9519276619        2.7824264652       12.4699426498
Ni           12.7030471829        0.8766410245       11.7612182526
Ni            4.2280856817        2.7827978412       13.2648353697
Ni            4.8831902049        0.8770803122       11.7446015685
Ni           13.3571978050        2.7829042004       13.2818488713
Ni            8.7917181838        0.8767632361       12.3531247596
Ni            0.3257227171        2.7817146300       12.6924563746
Te           14.0062152212        2.7829457606       10.6180550922
Te            5.5268970277        0.8772792027       14.4130802343
Te           10.4980245682        0.8776000409       10.4464837252
Te            2.0325811182        2.7824742436       14.5959252549
Te            3.5782261603        2.7827159248       10.6025020349
Te           12.0529792168        0.8772619143       14.4271604140
Te            7.0894248796        0.8775595911       10.4351539035
Te           15.5640156781        2.7824630496       14.6001992759
Te            0.3219377754        0.8796918585       10.8890647640
Te            8.7899603107        2.7790190101       14.1562585576
End final coordinates



     Writing all to output data dir /ddn/data/physics/eamoujaes/2D-Ta2Ni3Te5/ELASTIC/C12/OUT/ta2ni3te5.save/
 
     init_run     :     82.64s CPU     36.70s WALL (       1 calls)
     electrons    :  31157.15s CPU  11710.39s WALL (      32 calls)
     update_pot   :   1743.72s CPU    586.25s WALL (      31 calls)
     forces       :   1547.88s CPU    528.06s WALL (      32 calls)
     stress       :   3705.34s CPU   1261.54s WALL (      32 calls)

     Called by init_run:
     wfcinit      :     24.85s CPU      8.95s WALL (       1 calls)
     potinit      :     19.60s CPU      6.78s WALL (       1 calls)
     hinit0       :     35.67s CPU     19.68s WALL (       1 calls)

     Called by electrons:
     c_bands      :  22275.19s CPU   7897.40s WALL (     694 calls)
     sum_band     :   5132.76s CPU   1861.87s WALL (     694 calls)
     v_of_rho     :   1759.61s CPU    668.27s WALL (     709 calls)
     newd         :    972.38s CPU    415.54s WALL (     709 calls)
     PAW_pot      :    445.18s CPU    158.21s WALL (     740 calls)
     mix_rho      :    435.54s CPU    166.78s WALL (     694 calls)

     Called by c_bands:
     init_us_2    :    224.08s CPU     75.79s WALL (    2968 calls)
     init_us_2:cp :    223.97s CPU     75.76s WALL (    2968 calls)
     cegterg      :  20917.22s CPU   7187.92s WALL (    1388 calls)

     Called by *egterg:
     cdiaghg      :    278.86s CPU     96.20s WALL (    4743 calls)
     h_psi        :  13612.66s CPU   4685.83s WALL (    4841 calls)
     s_psi        :   1357.27s CPU    452.74s WALL (    4841 calls)
     g_psi        :     62.22s CPU     20.80s WALL (    3451 calls)

     Called by h_psi:
     h_psi:calbec :   1398.62s CPU    467.68s WALL (    4841 calls)
     vloc_psi     :  10750.99s CPU   3711.52s WALL (    4841 calls)
     add_vuspsi   :   1360.06s CPU    453.86s WALL (    4841 calls)

     General routines
     calbec       :   2165.09s CPU    723.91s WALL (    6611 calls)
     fft          :   1377.29s CPU    512.22s WALL (   10001 calls)
     ffts         :     38.89s CPU     14.09s WALL (    1403 calls)
     fftw         :  10099.83s CPU   3525.58s WALL ( 1012932 calls)
     interpolate  :    134.67s CPU     52.49s WALL (     709 calls)
 
     Parallel routines
 
     PWSCF        :     10h39m CPU      3h58m WALL

 
   This run was terminated on:  14:46: 9  31Jul2024            

=------------------------------------------------------------------------------=
   JOB DONE.
=------------------------------------------------------------------------------=
