
     Program PWSCF v.7.1 starts on 31Jul2024 at 14:46:12 

     This program is part of the open-source Quantum ESPRESSO suite
     for quantum simulation of materials; please cite
         "P. Giannozzi et al., J. Phys.:Condens. Matter 21 395502 (2009);
         "P. Giannozzi et al., J. Phys.:Condens. Matter 29 465901 (2017);
         "P. Giannozzi et al., J. Chem. Phys. 152 154105 (2020);
          URL http://www.quantum-espresso.org", 
     in publications or presentations arising from this work. More details at
     http://www.quantum-espresso.org/quote

     Parallel version (MPI & OpenMP), running on      72 processor cores
     Number of MPI processes:                24
     Threads/MPI process:                     3

     MPI processes distributed on     3 nodes
     28476 MiB available memory on the printing compute node when the environment starts
 
     Waiting for input...
     Reading input from standard input
Warning: card &CELL ignored
Warning: card CELL_DYNAMICS='BFGS' ignored
Warning: card PRESS=0.0 ignored
Warning: card CELL_DOFREE='2DXY' ignored
Warning: card / ignored

     Current dimensions of program PWSCF are:
     Max number of different atomic species (ntypx) = 10
     Max number of k-points (npk) =  40000
     Max angular momentum in pseudopotentials (lmaxx) =  4
     Message from routine read_pp_mesh:
     mismatch in mesh size, discarding the one in header
     Message from routine read_pp_mesh:
     mismatch in mesh size, discarding the one in header
     Message from routine read_pp_mesh:
     mismatch in mesh size, discarding the one in header
 
     K-points division:     npool     =       8
     R & G space division:  proc/nbgrp/npool/nimage =       3
     Subspace diagonalization in iterative solution of the eigenvalue problem:
     a serial algorithm will be used

 
     Parallelization info
     --------------------
     sticks:   dense  smooth     PW     G-vecs:    dense   smooth      PW
     Min        2935    1470    413               645639   228267   33859
     Max        2936    1471    417               645642   228268   33859
     Sum        8807    4411   1243              1936923   684803  101577
 
     Using Slab Decomposition
 


     bravais-lattice index     =            0
     lattice parameter (alat)  =      32.6734  a.u.
     unit-cell volume          =   10904.5460 (a.u.)^3
     number of atoms/cell      =           20
     number of atomic types    =            3
     number of electrons       =       220.00
     number of Kohn-Sham states=          132
     kinetic-energy cutoff     =      60.0000  Ry
     charge density cutoff     =     480.0000  Ry
     scf convergence threshold =      1.0E-08
     mixing beta               =       0.2000
     number of iterations used =            8  plain     mixing
     energy convergence thresh.=      1.0E-04
     force convergence thresh. =      1.0E-03
     Exchange-correlation= SLA PW PBX PBC
                           (   1   4   3   4   0   0   0)
     nstep                     =         2000


     celldm(1)=  32.673365  celldm(2)=   0.000000  celldm(3)=   0.000000
     celldm(4)=   0.000000  celldm(5)=   0.000000  celldm(6)=   0.000000

     crystal axes: (cart. coord. in units of alat)
               a(1) = (   1.000000   0.000000   0.000000 )  
               a(2) = (   0.000000   0.215905   0.000000 )  
               a(3) = (   0.000000   0.000000   1.447981 )  

     reciprocal axes: (cart. coord. in units 2 pi/alat)
               b(1) = (  1.000000  0.000000  0.000000 )  
               b(2) = (  0.000000  4.631664  0.000000 )  
               b(3) = (  0.000000  0.000000  0.690617 )  


     PseudoPot. # 1 for Ta read from file:
     /ddn/data/physics/eamoujaes/PSEUDO-CREATED/Ta.upf
     MD5 check sum: d865b2c2c09566b116f2b8decb2c153d
     Pseudo is Projector augmented-wave + core cor, Zval = 13.0
     Generated using ATOMPAW code
     Shape of augmentation charge: SINC**2
     Using radial grid of 2342 points,  6 beta functions with: 
                l(1) =   0
                l(2) =   0
                l(3) =   1
                l(4) =   1
                l(5) =   2
                l(6) =   2
     Q(r) pseudized with 0 coefficients 


     PseudoPot. # 2 for Ni read from file:
     /ddn/data/physics/eamoujaes/PSEUDO-CREATED/Ni.upf
     MD5 check sum: 85a2a5d9d38f4289a1cc30d5adb66a03
     Pseudo is Projector augmented-wave + core cor, Zval = 18.0
     Generated using ATOMPAW code
     Shape of augmentation charge: SINC**2
     Using radial grid of 2342 points,  6 beta functions with: 
                l(1) =   0
                l(2) =   0
                l(3) =   1
                l(4) =   1
                l(5) =   2
                l(6) =   2
     Q(r) pseudized with 0 coefficients 


     PseudoPot. # 3 for Te read from file:
     /ddn/data/physics/eamoujaes/PSEUDO-CREATED/Te.upf
     MD5 check sum: 8d958f193a7511a138982c2e72838810
     Pseudo is Projector augmented-wave + core cor, Zval =  6.0
     Generated using ATOMPAW code
     Shape of augmentation charge: SINC**2
     Using radial grid of 2342 points,  4 beta functions with: 
                l(1) =   0
                l(2) =   0
                l(3) =   1
                l(4) =   1
     Q(r) pseudized with 0 coefficients 


     atomic species   valence    mass     pseudopotential
        Ta            13.00   180.94790     Ta( 1.00)
        Ni            18.00    58.69340     Ni( 1.00)
        Te             6.00   127.60000     Te( 1.00)

     No symmetry found



   Cartesian axes

     site n.     atom                  positions (alat units)
         1           Ta  tau(   1) = (   0.8902164   0.0529163   0.7197131  )
         2           Ta  tau(   2) = (   0.3800781   0.1587490   0.7282820  )
         3           Ta  tau(   3) = (   0.1310096   0.0529163   0.7197031  )
         4           Ta  tau(   4) = (   0.6411483   0.1587490   0.7282913  )
         5           Ni  tau(   5) = (   0.7440375   0.0529163   0.6802597  )
         6           Ni  tau(   6) = (   0.2338982   0.1587490   0.7677353  )
         7           Ni  tau(   7) = (   0.2771814   0.0529163   0.6802442  )
         8           Ni  tau(   8) = (   0.7873199   0.1587490   0.7677502  )
         9           Ni  tau(   9) = (   0.5106042   0.0529163   0.7153387  )
        10           Ni  tau(  10) = (   0.0004671   0.1587490   0.7326553  )
        11           Te  tau(  11) = (   0.8220383   0.1587490   0.6093266  )
        12           Te  tau(  12) = (   0.3118983   0.0529163   0.8386681  )
        13           Te  tau(  13) = (   0.6128070   0.0529163   0.6084057  )
        14           Te  tau(  14) = (   0.1026692   0.1587490   0.8395891  )
        15           Te  tau(  15) = (   0.1991723   0.1587490   0.6093137  )
        16           Te  tau(  16) = (   0.7093111   0.0529163   0.8386809  )
        17           Te  tau(  17) = (   0.4084221   0.0529163   0.6083963  )
        18           Te  tau(  18) = (   0.9185600   0.1587490   0.8395990  )
        19           Te  tau(  19) = (   0.0004800   0.0529163   0.6268143  )
        20           Te  tau(  20) = (   0.5106164   0.1587490   0.8211786  )

     number of k points=    12  Gaussian smearing, width (Ry)=  0.0020
                       cart. coord. in units 2pi/alat
        k(    1) = (   0.0000000   0.0000000   0.0000000), wk =   0.1000000
        k(    2) = (   0.0000000   0.4631664   0.0000000), wk =   0.2000000
        k(    3) = (   0.0000000   0.9263327   0.0000000), wk =   0.2000000
        k(    4) = (   0.0000000   1.3894991   0.0000000), wk =   0.2000000
        k(    5) = (   0.0000000   1.8526654   0.0000000), wk =   0.2000000
        k(    6) = (   0.0000000  -2.3158318   0.0000000), wk =   0.1000000
        k(    7) = (  -0.5000000   0.0000000   0.0000000), wk =   0.1000000
        k(    8) = (  -0.5000000   0.4631664   0.0000000), wk =   0.2000000
        k(    9) = (  -0.5000000   0.9263327   0.0000000), wk =   0.2000000
        k(   10) = (  -0.5000000   1.3894991   0.0000000), wk =   0.2000000
        k(   11) = (  -0.5000000   1.8526654   0.0000000), wk =   0.2000000
        k(   12) = (  -0.5000000  -2.3158318   0.0000000), wk =   0.1000000

     Dense  grid:  1936923 G-vectors     FFT dimensions: ( 240,  50, 360)

     Smooth grid:   684803 G-vectors     FFT dimensions: ( 162,  36, 240)

     Estimated max dynamical RAM per process >       1.02 GB

     Estimated total dynamical RAM >      21.21 GB

     Initial potential from superposition of free atoms

     starting charge     219.9927, renormalised to     220.0000

     negative rho (up, down):  5.127E-02 0.000E+00
     Starting wfcs are  260 randomized atomic wfcs
     Checking if some PAW data can be deallocated... 

     total cpu time spent up to now is       37.8 secs

     Self-consistent Calculation

     iteration #  1     ecut=    60.00 Ry     beta= 0.20
     Davidson diagonalization with overlap
     ethr =  1.00E-02,  avg # of iterations =  2.8

     negative rho (up, down):  5.182E-02 0.000E+00

     total cpu time spent up to now is       56.6 secs

     total energy              =   -9107.90734957 Ry
     estimated scf accuracy    <       7.76997225 Ry

     iteration #  2     ecut=    60.00 Ry     beta= 0.20
     Davidson diagonalization with overlap
     ethr =  3.53E-03,  avg # of iterations =  2.7

     negative rho (up, down):  5.305E-02 0.000E+00

     total cpu time spent up to now is       72.5 secs

     total energy              =   -9107.81350596 Ry
     estimated scf accuracy    <      16.95999550 Ry

     iteration #  3     ecut=    60.00 Ry     beta= 0.20
     Davidson diagonalization with overlap
     ethr =  3.53E-03,  avg # of iterations =  1.7

     negative rho (up, down):  5.388E-02 0.000E+00

     total cpu time spent up to now is       87.2 secs

     total energy              =   -9109.61200023 Ry
     estimated scf accuracy    <       5.79825541 Ry

     iteration #  4     ecut=    60.00 Ry     beta= 0.20
     Davidson diagonalization with overlap
     ethr =  2.64E-03,  avg # of iterations =  1.0

     negative rho (up, down):  5.506E-02 0.000E+00

     total cpu time spent up to now is      101.0 secs

     total energy              =   -9109.88307575 Ry
     estimated scf accuracy    <       1.15198273 Ry

     iteration #  5     ecut=    60.00 Ry     beta= 0.20
     Davidson diagonalization with overlap
     ethr =  5.24E-04,  avg # of iterations =  1.0

     negative rho (up, down):  5.712E-02 0.000E+00

     total cpu time spent up to now is      114.8 secs

     total energy              =   -9109.80741175 Ry
     estimated scf accuracy    <       0.71402072 Ry

     iteration #  6     ecut=    60.00 Ry     beta= 0.20
     Davidson diagonalization with overlap
     ethr =  3.25E-04,  avg # of iterations =  1.4

     negative rho (up, down):  6.182E-02 0.000E+00

     total cpu time spent up to now is      129.5 secs

     total energy              =   -9109.75627705 Ry
     estimated scf accuracy    <       0.25793718 Ry

     iteration #  7     ecut=    60.00 Ry     beta= 0.20
     Davidson diagonalization with overlap
     ethr =  1.17E-04,  avg # of iterations =  8.4

     negative rho (up, down):  6.200E-02 0.000E+00

     total cpu time spent up to now is      149.4 secs

     total energy              =   -9109.81839331 Ry
     estimated scf accuracy    <       1.03908902 Ry

     iteration #  8     ecut=    60.00 Ry     beta= 0.20
     Davidson diagonalization with overlap
     ethr =  1.17E-04,  avg # of iterations =  1.1

     negative rho (up, down):  6.203E-02 0.000E+00

     total cpu time spent up to now is      163.7 secs

     total energy              =   -9109.79863703 Ry
     estimated scf accuracy    <       0.30643305 Ry

     iteration #  9     ecut=    60.00 Ry     beta= 0.20
     Davidson diagonalization with overlap
     ethr =  1.17E-04,  avg # of iterations =  1.0

     negative rho (up, down):  6.242E-02 0.000E+00

     total cpu time spent up to now is      177.6 secs

     total energy              =   -9109.80515018 Ry
     estimated scf accuracy    <       0.03647673 Ry

     iteration # 10     ecut=    60.00 Ry     beta= 0.20
     Davidson diagonalization with overlap
     ethr =  1.66E-05,  avg # of iterations =  6.7

     negative rho (up, down):  6.354E-02 0.000E+00

     total cpu time spent up to now is      198.3 secs

     total energy              =   -9109.80867812 Ry
     estimated scf accuracy    <       0.00761332 Ry

     iteration # 11     ecut=    60.00 Ry     beta= 0.20
     Davidson diagonalization with overlap
     c_bands:  2 eigenvalues not converged
     ethr =  3.46E-06,  avg # of iterations =  9.3

     negative rho (up, down):  6.463E-02 0.000E+00

     total cpu time spent up to now is      217.3 secs

     total energy              =   -9109.80861535 Ry
     estimated scf accuracy    <       0.00572061 Ry

     iteration # 12     ecut=    60.00 Ry     beta= 0.20
     Davidson diagonalization with overlap
     ethr =  2.60E-06,  avg # of iterations =  2.3

     negative rho (up, down):  6.528E-02 0.000E+00

     total cpu time spent up to now is      232.3 secs

     total energy              =   -9109.80873450 Ry
     estimated scf accuracy    <       0.00296462 Ry

     iteration # 13     ecut=    60.00 Ry     beta= 0.20
     Davidson diagonalization with overlap
     ethr =  1.35E-06,  avg # of iterations =  1.2

     negative rho (up, down):  6.542E-02 0.000E+00

     total cpu time spent up to now is      246.5 secs

     total energy              =   -9109.80890862 Ry
     estimated scf accuracy    <       0.00067979 Ry

     iteration # 14     ecut=    60.00 Ry     beta= 0.20
     Davidson diagonalization with overlap
     ethr =  3.09E-07,  avg # of iterations =  1.2

     negative rho (up, down):  6.552E-02 0.000E+00

     total cpu time spent up to now is      260.8 secs

     total energy              =   -9109.80893621 Ry
     estimated scf accuracy    <       0.00022776 Ry

     iteration # 15     ecut=    60.00 Ry     beta= 0.20
     Davidson diagonalization with overlap
     ethr =  1.04E-07,  avg # of iterations =  1.2

     negative rho (up, down):  6.564E-02 0.000E+00

     total cpu time spent up to now is      275.1 secs

     total energy              =   -9109.80893655 Ry
     estimated scf accuracy    <       0.00011391 Ry

     iteration # 16     ecut=    60.00 Ry     beta= 0.20
     Davidson diagonalization with overlap
     ethr =  5.18E-08,  avg # of iterations =  2.0

     negative rho (up, down):  6.564E-02 0.000E+00

     total cpu time spent up to now is      290.2 secs

     total energy              =   -9109.80894186 Ry
     estimated scf accuracy    <       0.00004556 Ry

     iteration # 17     ecut=    60.00 Ry     beta= 0.20
     Davidson diagonalization with overlap
     ethr =  2.07E-08,  avg # of iterations =  1.4

     negative rho (up, down):  6.567E-02 0.000E+00

     total cpu time spent up to now is      304.9 secs

     total energy              =   -9109.80894443 Ry
     estimated scf accuracy    <       0.00003178 Ry

     iteration # 18     ecut=    60.00 Ry     beta= 0.20
     Davidson diagonalization with overlap
     ethr =  1.44E-08,  avg # of iterations =  1.7

     negative rho (up, down):  6.567E-02 0.000E+00

     total cpu time spent up to now is      319.7 secs

     total energy              =   -9109.80894654 Ry
     estimated scf accuracy    <       0.00001089 Ry

     iteration # 19     ecut=    60.00 Ry     beta= 0.20
     Davidson diagonalization with overlap
     ethr =  4.95E-09,  avg # of iterations =  1.8

     negative rho (up, down):  6.564E-02 0.000E+00

     total cpu time spent up to now is      337.5 secs

     total energy              =   -9109.80894749 Ry
     estimated scf accuracy    <       0.00000176 Ry

     iteration # 20     ecut=    60.00 Ry     beta= 0.20
     Davidson diagonalization with overlap
     ethr =  8.00E-10,  avg # of iterations =  4.0

     negative rho (up, down):  6.562E-02 0.000E+00

     total cpu time spent up to now is      355.5 secs

     total energy              =   -9109.80894770 Ry
     estimated scf accuracy    <       0.00000121 Ry

     iteration # 21     ecut=    60.00 Ry     beta= 0.20
     Davidson diagonalization with overlap
     ethr =  5.51E-10,  avg # of iterations =  1.1

     negative rho (up, down):  6.558E-02 0.000E+00

     total cpu time spent up to now is      369.8 secs

     total energy              =   -9109.80894772 Ry
     estimated scf accuracy    <       0.00000052 Ry

     iteration # 22     ecut=    60.00 Ry     beta= 0.20
     Davidson diagonalization with overlap
     ethr =  2.38E-10,  avg # of iterations =  2.0

     negative rho (up, down):  6.555E-02 0.000E+00

     total cpu time spent up to now is      385.3 secs

     total energy              =   -9109.80894780 Ry
     estimated scf accuracy    <       0.00000027 Ry

     iteration # 23     ecut=    60.00 Ry     beta= 0.20
     Davidson diagonalization with overlap
     ethr =  1.25E-10,  avg # of iterations =  2.0

     negative rho (up, down):  6.554E-02 0.000E+00

     total cpu time spent up to now is      400.4 secs

     total energy              =   -9109.80894784 Ry
     estimated scf accuracy    <       0.00000019 Ry

     iteration # 24     ecut=    60.00 Ry     beta= 0.20
     Davidson diagonalization with overlap
     ethr =  8.58E-11,  avg # of iterations =  1.0

     negative rho (up, down):  6.554E-02 0.000E+00

     total cpu time spent up to now is      414.3 secs

     total energy              =   -9109.80894783 Ry
     estimated scf accuracy    <       0.00000009 Ry

     iteration # 25     ecut=    60.00 Ry     beta= 0.20
     Davidson diagonalization with overlap
     ethr =  3.91E-11,  avg # of iterations =  2.0

     negative rho (up, down):  6.553E-02 0.000E+00

     total cpu time spent up to now is      429.3 secs

     total energy              =   -9109.80894785 Ry
     estimated scf accuracy    <       0.00000010 Ry

     iteration # 26     ecut=    60.00 Ry     beta= 0.20
     Davidson diagonalization with overlap
     ethr =  3.91E-11,  avg # of iterations =  1.0

     negative rho (up, down):  6.552E-02 0.000E+00

     total cpu time spent up to now is      443.2 secs

     total energy              =   -9109.80894786 Ry
     estimated scf accuracy    <       0.00000001 Ry

     iteration # 27     ecut=    60.00 Ry     beta= 0.20
     Davidson diagonalization with overlap
     ethr =  6.18E-12,  avg # of iterations =  2.1

     negative rho (up, down):  6.550E-02 0.000E+00

     total cpu time spent up to now is      458.8 secs

     End of self-consistent calculation

          k = 0.0000 0.0000 0.0000 ( 85557 PWs)   bands (ev):

  -103.3861-103.3659-103.2521-103.2033-103.1475-102.9049 -68.8380 -68.7948
   -68.6806 -68.4399 -63.9597 -63.9480 -63.7914 -63.7759 -63.7678 -63.7350
   -63.7230 -63.7028 -63.6683 -63.6266 -63.5993 -63.5495 -63.5269 -63.4878
   -63.4191 -63.4116 -63.3614 -63.1863 -35.3255 -35.2742 -35.2630 -35.2494
   -35.2227 -35.1990 -35.1667 -35.1076 -35.0813 -35.0259 -34.9344 -34.9084
   -13.0747 -12.6246 -12.5039 -12.2540 -11.9887 -11.8526 -11.7186 -11.6869
   -11.5652 -11.3672  -6.2194  -5.8333  -5.7541  -5.7081  -5.5366  -5.3373
    -5.3007  -4.8069  -4.5977  -4.2205  -4.0192  -3.9411  -3.7814  -3.7038
    -3.6621  -3.5965  -3.5498  -3.4929  -3.4186  -3.3118  -3.0960  -2.9212
    -2.7704  -2.7648  -2.7172  -2.6660  -2.6303  -2.5581  -2.3229  -2.3138
    -2.2850  -2.2060  -2.0660  -2.0482  -2.0063  -1.9526  -1.9162  -1.7927
    -1.7508  -1.6913  -1.5181  -1.5142  -1.4096  -1.3895  -1.3426  -1.2966
    -1.2081  -1.1677  -1.1192  -1.0785  -1.0462  -0.8057  -0.7027  -0.6625
    -0.6311  -0.5408  -0.4391  -0.4139  -0.2180  -0.1207   0.0165   0.1526
     0.6752   0.8154   0.9887   1.0311   1.2154   1.4069   1.5768   1.5907
     1.6229   1.8387   2.1608   2.2410   2.4058   2.7968   2.9841   3.0444
     3.1585   3.2399   3.3140   3.4101

          k = 0.0000 0.4632 0.0000 ( 85637 PWs)   bands (ev):

  -103.3860-103.3660-103.2521-103.2033-103.1476-102.9049 -68.8379 -68.7947
   -68.6805 -68.4398 -63.9598 -63.9481 -63.7907 -63.7760 -63.7679 -63.7371
   -63.7232 -63.7029 -63.6667 -63.6269 -63.5988 -63.5496 -63.5295 -63.4858
   -63.4192 -63.4117 -63.3614 -63.1865 -35.3248 -35.2735 -35.2683 -35.2489
   -35.2281 -35.1984 -35.1661 -35.1131 -35.0807 -35.0253 -34.9337 -34.9141
   -12.9904 -12.5424 -12.4230 -12.2087 -11.9292 -11.8069 -11.6715 -11.6372
   -11.5173 -11.3370  -6.1385  -5.7553  -5.6731  -5.6268  -5.4718  -5.2681
    -5.2134  -4.7408  -4.5356  -4.1912  -4.0007  -3.9856  -3.8958  -3.8301
    -3.7659  -3.6631  -3.6229  -3.5662  -3.3962  -3.2721  -3.1823  -2.9604
    -2.9011  -2.8339  -2.7597  -2.7477  -2.7111  -2.6569  -2.5774  -2.4235
    -2.2456  -2.2095  -2.1754  -2.1222  -2.0835  -2.0283  -1.9645  -1.8483
    -1.8003  -1.7368  -1.7098  -1.6130  -1.5666  -1.4780  -1.4250  -1.3747
    -1.3341  -1.2743  -1.1628  -1.0494  -0.9656  -0.8591  -0.8232  -0.6715
    -0.6308  -0.5246  -0.4865  -0.4184  -0.2685  -0.1393   0.1467   0.3358
     0.5495   0.7860   0.9617   1.0563   1.1834   1.3141   1.4590   1.6234
     1.6727   1.8183   1.9517   2.1383   2.4147   2.5092   2.6622   2.7355
     2.9243   2.9475   3.3080   3.5670

          k = 0.0000 0.9263 0.0000 ( 85615 PWs)   bands (ev):

  -103.3857-103.3663-103.2521-103.2032-103.1477-102.9049 -68.8376 -68.7944
   -68.6802 -68.4395 -63.9600 -63.9483 -63.7883 -63.7762 -63.7680 -63.7426
   -63.7234 -63.7029 -63.6626 -63.6279 -63.5971 -63.5496 -63.5353 -63.4814
   -63.4194 -63.4118 -63.3614 -63.1864 -35.3231 -35.2826 -35.2717 -35.2475
   -35.2423 -35.1970 -35.1644 -35.1274 -35.0791 -35.0235 -34.9331 -34.9282
   -12.7518 -12.3112 -12.1980 -12.0776 -11.7771 -11.6806 -11.5429 -11.4921
   -11.3901 -11.2572  -5.9471  -5.5586  -5.4961  -5.4237  -5.3163  -5.0813
    -4.9961  -4.6182  -4.5565  -4.2664  -4.1767  -4.1227  -4.0929  -4.0299
    -3.9356  -3.8719  -3.8298  -3.7208  -3.6163  -3.5209  -3.2867  -3.2008
    -3.1744  -3.0916  -2.9863  -2.9306  -2.8146  -2.7265  -2.6357  -2.6236
    -2.5066  -2.4522  -2.3366  -2.2922  -2.2495  -2.1085  -2.0504  -1.9721
    -1.9337  -1.8959  -1.7511  -1.7257  -1.6963  -1.5686  -1.5400  -1.4272
    -1.4129  -1.3314  -1.2223  -1.1550  -1.0358  -0.9711  -0.9006  -0.8411
    -0.8009  -0.7012  -0.6429  -0.4774  -0.3522  -0.3071   0.4291   0.5324
     0.6654   0.8782   0.9707   1.0069   1.1198   1.2687   1.2965   1.4337
     1.7327   1.7751   1.8532   2.0890   2.1296   2.3667   2.4508   2.5979
     2.6990   2.9055   3.7120   3.8760

          k = 0.0000 1.3895 0.0000 ( 85553 PWs)   bands (ev):

  -103.3853-103.3667-103.2521-103.2030-103.1478-102.9049 -68.8373 -68.7940
   -68.6798 -68.4391 -63.9600 -63.9485 -63.7844 -63.7762 -63.7680 -63.7497
   -63.7236 -63.7029 -63.6578 -63.6293 -63.5946 -63.5495 -63.5418 -63.4768
   -63.4197 -63.4118 -63.3614 -63.1864 -35.3212 -35.3001 -35.2705 -35.2590
   -35.2454 -35.1953 -35.1625 -35.1448 -35.0772 -35.0213 -34.9485 -34.9291
   -12.4098 -11.9911 -11.9306 -11.8217 -11.6007 -11.5057 -11.3765 -11.2841
   -11.2331 -11.1581  -5.8773  -5.5428  -5.4488  -5.3704  -5.2216  -4.9962
    -4.9487  -4.8209  -4.7654  -4.6436  -4.5162  -4.3386  -4.3104  -4.0606
    -4.0106  -3.9573  -3.9183  -3.8062  -3.7361  -3.5698  -3.4758  -3.3969
    -3.2573  -3.1743  -3.1394  -3.0606  -3.0316  -2.8697  -2.7229  -2.6581
    -2.6334  -2.5685  -2.4402  -2.3720  -2.2987  -2.2197  -2.1295  -2.1165
    -2.0384  -1.9710  -1.8927  -1.8557  -1.7257  -1.6496  -1.5969  -1.5229
    -1.4607  -1.4207  -1.3416  -1.2914  -1.1720  -1.1178  -1.0540  -0.9865
    -0.9279  -0.8219  -0.7615  -0.6498  -0.5523  -0.4571   0.3378   0.5574
     0.7726   0.9359   1.0882   1.1425   1.2269   1.3047   1.4297   1.4782
     1.7296   1.8331   1.9448   2.2164   2.2821   2.3490   2.5148   2.7870
     2.8551   2.9710   3.4683   3.5340

          k = 0.0000 1.8527 0.0000 ( 85606 PWs)   bands (ev):

  -103.3850-103.3670-103.2521-103.2029-103.1479-102.9049 -68.8370 -68.7937
   -68.6796 -68.4388 -63.9601 -63.9486 -63.7802 -63.7763 -63.7680 -63.7568
   -63.7237 -63.7029 -63.6537 -63.6307 -63.5924 -63.5498 -63.5473 -63.4735
   -63.4199 -63.4118 -63.3614 -63.1867 -35.3210 -35.3129 -35.2769 -35.2649
   -35.2438 -35.1939 -35.1632 -35.1567 -35.0756 -35.0195 -34.9635 -34.9274
   -12.0827 -11.7634 -11.6319 -11.5068 -11.4288 -11.3476 -11.2511 -11.1640
   -11.0960 -11.0632  -6.1020  -5.9816  -5.8633  -5.8421  -5.4216  -5.2123
    -5.0493  -4.9026  -4.8528  -4.6056  -4.4604  -4.4268  -4.2245  -4.0434
    -3.9703  -3.7937  -3.7223  -3.6611  -3.6163  -3.5899  -3.4672  -3.4418
    -3.3546  -3.2813  -3.2425  -3.2066  -3.0161  -2.9425  -2.8649  -2.7861
    -2.6058  -2.5520  -2.4741  -2.4190  -2.2964  -2.2558  -2.1530  -2.1317
    -2.0532  -2.0423  -2.0098  -1.8823  -1.8635  -1.7890  -1.6961  -1.6443
    -1.5431  -1.4696  -1.3970  -1.3399  -1.3040  -1.2072  -1.1688  -1.1557
    -1.0631  -0.9226  -0.8780  -0.7833  -0.6935  -0.6003   0.2115   0.3986
     0.9212   0.9585   1.1499   1.1628   1.2633   1.6658   1.7221   1.7476
     1.7970   1.8761   2.0694   2.0879   2.2972   2.6253   2.7045   2.7484
     3.0549   3.1476   3.1880   3.3210

          k = 0.0000-2.3158 0.0000 ( 85522 PWs)   bands (ev):

  -103.3848-103.3671-103.2521-103.2029-103.1479-102.9049 -68.8368 -68.7936
   -68.6794 -68.4387 -63.9600 -63.9486 -63.7776 -63.7762 -63.7680 -63.7603
   -63.7237 -63.7028 -63.6520 -63.6313 -63.5914 -63.5499 -63.5493 -63.4722
   -63.4199 -63.4117 -63.3613 -63.1867 -35.3231 -35.3156 -35.2818 -35.2648
   -35.2432 -35.1934 -35.1667 -35.1580 -35.0749 -35.0188 -34.9692 -34.9267
   -11.9526 -11.6488 -11.4896 -11.3737 -11.3443 -11.2451 -11.2001 -11.1838
   -11.0572 -11.0179  -6.2460  -6.1968  -6.0907  -6.0711  -5.6103  -5.3780
    -5.0942  -4.9930  -4.7655  -4.7103  -4.4370  -4.2282  -3.9946  -3.9406
    -3.8796  -3.7788  -3.7704  -3.6359  -3.5407  -3.5222  -3.4701  -3.4455
    -3.3916  -3.3901  -3.1584  -3.1435  -3.0841  -3.0704  -2.9128  -2.8381
    -2.5427  -2.5166  -2.5017  -2.4258  -2.2832  -2.2267  -2.1513  -2.1240
    -2.1103  -2.0416  -1.9983  -1.9124  -1.8745  -1.8148  -1.7856  -1.7550
    -1.5362  -1.5199  -1.4241  -1.3692  -1.3163  -1.2606  -1.2334  -1.2022
    -1.1203  -1.0711  -0.9279  -0.8914  -0.6658  -0.6311   0.1942   0.3519
     0.9444   1.0217   1.0522   1.1400   1.3999   1.5133   1.7071   1.7902
     1.9672   2.0426   2.1874   2.2429   2.3314   2.4791   2.6630   2.6894
     3.0225   3.0758   3.3005   3.3985

          k =-0.5000 0.0000 0.0000 ( 85656 PWs)   bands (ev):

  -103.3861-103.3659-103.2521-103.2033-103.1475-102.9049 -68.8380 -68.7948
   -68.6806 -68.4399 -63.9599 -63.9481 -63.7916 -63.7761 -63.7679 -63.7350
   -63.7232 -63.7028 -63.6683 -63.6266 -63.5995 -63.5496 -63.5270 -63.4877
   -63.4191 -63.4118 -63.3614 -63.1865 -35.3255 -35.2742 -35.2630 -35.2494
   -35.2227 -35.1990 -35.1667 -35.1076 -35.0813 -35.0259 -34.9344 -34.9084
   -13.0582 -12.7467 -12.2688 -12.2323 -12.1445 -11.9445 -11.7242 -11.6151
   -11.4724 -11.4287  -6.1812  -5.9944  -5.7804  -5.7003  -5.4333  -5.2763
    -5.1334  -4.9261  -4.6039  -4.4920  -3.9498  -3.8228  -3.7638  -3.6930
    -3.6188  -3.5517  -3.5136  -3.4216  -3.3647  -3.3013  -3.1574  -3.0895
    -3.0065  -2.8300  -2.6894  -2.6204  -2.5705  -2.5121  -2.4156  -2.2853
    -2.2257  -2.1869  -2.0704  -2.0542  -1.9726  -1.9578  -1.8862  -1.8129
    -1.7410  -1.6213  -1.5749  -1.4934  -1.4838  -1.3631  -1.3277  -1.2686
    -1.2064  -1.1742  -1.1561  -1.0461  -0.9805  -0.8578  -0.7037  -0.6341
    -0.6009  -0.5544  -0.4155  -0.3994  -0.2310  -0.1676   0.0187   0.1381
     0.7428   0.8966   0.9177   1.0248   1.3025   1.3144   1.4568   1.5156
     1.6952   1.7224   2.2013   2.3790   2.4178   2.5912   3.0196   3.1101
     3.1386   3.2233   3.3442   3.4322

          k =-0.5000 0.4632 0.0000 ( 85634 PWs)   bands (ev):

  -103.3860-103.3660-103.2521-103.2033-103.1476-102.9049 -68.8379 -68.7947
   -68.6805 -68.4398 -63.9599 -63.9481 -63.7908 -63.7761 -63.7679 -63.7371
   -63.7232 -63.7028 -63.6666 -63.6269 -63.5989 -63.5497 -63.5295 -63.4858
   -63.4192 -63.4117 -63.3614 -63.1865 -35.3248 -35.2735 -35.2683 -35.2489
   -35.2281 -35.1984 -35.1661 -35.1131 -35.0807 -35.0253 -34.9337 -34.9141
   -12.9750 -12.6601 -12.2199 -12.1620 -12.0725 -11.9013 -11.6770 -11.5696
   -11.4325 -11.3929  -6.0976  -5.9132  -5.7013  -5.6154  -5.3690  -5.2024
    -5.0636  -4.8689  -4.5477  -4.4489  -3.9692  -3.9122  -3.9029  -3.7921
    -3.6729  -3.5626  -3.5285  -3.4931  -3.4247  -3.3257  -3.2183  -3.0645
    -3.0330  -2.9067  -2.7590  -2.7503  -2.6890  -2.6485  -2.4737  -2.4538
    -2.3254  -2.2239  -2.1279  -2.1180  -2.0505  -1.9914  -1.9646  -1.8785
    -1.8318  -1.7257  -1.6745  -1.6348  -1.5578  -1.5242  -1.4423  -1.3391
    -1.2941  -1.2405  -1.1119  -1.0693  -0.9701  -0.8471  -0.7784  -0.7059
    -0.6251  -0.5802  -0.5526  -0.4253  -0.2089  -0.0906   0.1698   0.2856
     0.6367   0.7442   1.0088   1.1169   1.2432   1.2763   1.4231   1.4419
     1.6261   1.7739   2.0223   2.2380   2.2828   2.4443   2.6697   2.7880
     2.8709   2.9332   3.4082   3.5073

          k =-0.5000 0.9263 0.0000 ( 85626 PWs)   bands (ev):

  -103.3857-103.3663-103.2521-103.2032-103.1477-102.9049 -68.8376 -68.7944
   -68.6802 -68.4395 -63.9599 -63.9483 -63.7883 -63.7761 -63.7680 -63.7426
   -63.7234 -63.7029 -63.6627 -63.6279 -63.5971 -63.5496 -63.5353 -63.4814
   -63.4195 -63.4118 -63.3615 -63.1865 -35.3231 -35.2826 -35.2717 -35.2475
   -35.2423 -35.1970 -35.1644 -35.1274 -35.0791 -35.0235 -34.9331 -34.9282
   -12.7398 -12.4130 -12.0963 -11.9584 -11.8698 -11.7814 -11.5506 -11.4516
   -11.3216 -11.2958  -5.8943  -5.7082  -5.5038  -5.4013  -5.2312  -5.0337
    -4.9355  -4.8140  -4.4417  -4.3865  -4.2394  -4.1589  -4.0954  -4.0136
    -3.8221  -3.7907  -3.7131  -3.6490  -3.5824  -3.5148  -3.3954  -3.2607
    -3.2061  -3.1396  -2.9683  -2.9125  -2.8174  -2.7154  -2.7050  -2.6152
    -2.5194  -2.4787  -2.4217  -2.2944  -2.1499  -2.0739  -2.0648  -2.0298
    -1.9485  -1.8956  -1.7995  -1.7005  -1.6145  -1.5526  -1.5258  -1.3982
    -1.3590  -1.2919  -1.2643  -1.1830  -1.1371  -1.0201  -0.9396  -0.8358
    -0.8173  -0.7073  -0.5602  -0.3963  -0.3352  -0.2765   0.4167   0.5309
     0.7358   0.8086   0.9454   1.0326   1.2191   1.3262   1.3717   1.4339
     1.5120   1.6536   1.9026   1.9751   2.2064   2.3969   2.5000   2.5399
     2.6451   2.8895   3.7618   3.8412

          k =-0.5000 1.3895 0.0000 ( 85524 PWs)   bands (ev):

  -103.3853-103.3667-103.2521-103.2030-103.1478-102.9049 -68.8373 -68.7940
   -68.6798 -68.4391 -63.9600 -63.9484 -63.7844 -63.7762 -63.7680 -63.7497
   -63.7235 -63.7029 -63.6577 -63.6292 -63.5946 -63.5495 -63.5418 -63.4767
   -63.4197 -63.4117 -63.3614 -63.1864 -35.3212 -35.3001 -35.2705 -35.2590
   -35.2454 -35.1953 -35.1625 -35.1448 -35.0772 -35.0213 -34.9485 -34.9291
   -12.4033 -12.0495 -11.9296 -11.6817 -11.6169 -11.5855 -11.3896 -11.3088
   -11.1776 -11.1691  -5.8202  -5.6496  -5.3693  -5.2734  -5.2077  -5.1490
    -5.1136  -4.8650  -4.6536  -4.6008  -4.4687  -4.3423  -4.2281  -4.0886
    -4.0549  -3.9325  -3.8716  -3.8209  -3.6203  -3.5974  -3.5906  -3.4190
    -3.2461  -3.1257  -3.1004  -3.0529  -2.9378  -2.8829  -2.8611  -2.7417
    -2.6298  -2.5288  -2.4769  -2.3970  -2.2964  -2.2058  -2.1363  -2.0998
    -2.0440  -1.9901  -1.9656  -1.8534  -1.6920  -1.5801  -1.5484  -1.5258
    -1.4681  -1.3991  -1.3660  -1.3051  -1.1644  -1.1235  -1.1192  -0.9857
    -0.8756  -0.8429  -0.7563  -0.6520  -0.5638  -0.4399   0.3383   0.5141
     0.9316   1.0012   1.0899   1.2322   1.2425   1.3105   1.3406   1.4419
     1.6849   1.8042   1.9229   1.9669   2.4213   2.5259   2.5640   2.7048
     2.7688   2.8264   3.5171   3.6222

          k =-0.5000 1.8527 0.0000 ( 85566 PWs)   bands (ev):

  -103.3850-103.3670-103.2521-103.2029-103.1479-102.9049 -68.8370 -68.7937
   -68.6796 -68.4388 -63.9600 -63.9486 -63.7801 -63.7762 -63.7680 -63.7567
   -63.7237 -63.7029 -63.6537 -63.6307 -63.5924 -63.5497 -63.5472 -63.4735
   -63.4199 -63.4118 -63.3614 -63.1866 -35.3210 -35.3129 -35.2769 -35.2649
   -35.2438 -35.1939 -35.1632 -35.1567 -35.0756 -35.0195 -34.9635 -34.9274
   -12.0816 -11.7551 -11.6653 -11.4854 -11.4061 -11.3503 -11.2570 -11.1892
   -11.0850 -11.0606  -6.1267  -6.0461  -5.7993  -5.7231  -5.4744  -5.2348
    -5.0804  -4.9241  -4.8548  -4.6533  -4.4417  -4.3276  -4.2806  -4.0453
    -3.9896  -3.8295  -3.7133  -3.6932  -3.5991  -3.5441  -3.4407  -3.4010
    -3.3519  -3.2942  -3.2078  -3.1550  -3.0149  -2.9008  -2.8728  -2.7564
    -2.7033  -2.6170  -2.4810  -2.4009  -2.3254  -2.2720  -2.1729  -2.1106
    -2.0875  -2.0457  -2.0042  -1.9480  -1.8246  -1.7248  -1.6477  -1.6058
    -1.5769  -1.4626  -1.4348  -1.3623  -1.2961  -1.2218  -1.1758  -1.1062
    -1.0408  -0.9832  -0.8992  -0.7935  -0.7072  -0.5700   0.2192   0.3918
     0.9333   1.0288   1.1920   1.2406   1.3928   1.5217   1.6742   1.7373
     1.7624   1.8427   2.0131   2.1301   2.3001   2.4590   2.7354   2.8715
     2.9310   3.0350   3.2768   3.3309

          k =-0.5000-2.3158 0.0000 ( 85612 PWs)   bands (ev):

  -103.3848-103.3671-103.2521-103.2029-103.1479-102.9049 -68.8368 -68.7936
   -68.6794 -68.4387 -63.9601 -63.9486 -63.7776 -63.7763 -63.7681 -63.7603
   -63.7238 -63.7030 -63.6521 -63.6314 -63.5914 -63.5499 -63.5493 -63.4723
   -63.4200 -63.4118 -63.3614 -63.1867 -35.3231 -35.3156 -35.2818 -35.2648
   -35.2432 -35.1934 -35.1667 -35.1580 -35.0750 -35.0188 -34.9692 -34.9267
   -11.9525 -11.6484 -11.4901 -11.3734 -11.3447 -11.2449 -11.2007 -11.1854
   -11.0553 -11.0175  -6.3177  -6.2670  -5.9965  -5.9388  -5.6614  -5.3651
    -5.1253  -4.9329  -4.8331  -4.7944  -4.3890  -4.2066  -4.0498  -4.0288
    -3.7939  -3.7753  -3.6846  -3.6365  -3.5622  -3.5289  -3.4929  -3.4583
    -3.3957  -3.3694  -3.2405  -3.2296  -2.9286  -2.8797  -2.8418  -2.7829
    -2.6845  -2.6588  -2.4715  -2.3888  -2.3146  -2.2662  -2.1582  -2.1438
    -2.0954  -2.0509  -2.0275  -1.9367  -1.8497  -1.8256  -1.7274  -1.6777
    -1.5734  -1.5307  -1.4571  -1.3734  -1.3297  -1.2510  -1.2332  -1.1911
    -1.1125  -1.1020  -0.9223  -0.9005  -0.6527  -0.6390   0.1997   0.3586
     0.9352   1.0827   1.1377   1.1885   1.3042   1.4362   1.7859   1.8189
     2.0326   2.0798   2.1420   2.1641   2.2208   2.3934   2.6806   2.7276
     2.9093   2.9668   3.4938   3.5397

     the Fermi energy is    -0.0365 ev

!    total energy              =   -9109.80894786 Ry
     total all-electron energy =     -9109.808948 Ry
     estimated scf accuracy    <          6.2E-09 Ry
     smearing contrib. (-TS)   =      -0.00000437 Ry
     internal energy E=F+TS    =   -9109.80894349 Ry

     The total energy is F=E-TS. E is the sum of the following terms:
     one-electron contribution =  -16391.66226600 Ry
     hartree contribution      =    8054.53458391 Ry
     xc contribution           =    -364.98581147 Ry
     ewald contribution        =    5860.02608437 Ry
     one-center paw contrib.   =   -6267.72153431 Ry

     convergence has been achieved in  27 iterations

     negative rho (up, down):  6.550E-02 0.000E+00

     Forces acting on atoms (cartesian axes, Ry/au):

     atom    1 type  1   force =    -0.13482853   -0.01344117    0.07859265
     atom    2 type  1   force =     0.00242780    0.00999607   -0.00312354
     atom    3 type  1   force =     0.02134390   -0.01069542    0.00756647
     atom    4 type  1   force =     0.00843982    0.01052445   -0.00774388
     atom    5 type  2   force =    -0.00238270   -0.01121540    0.00195874
     atom    6 type  2   force =     0.00091240    0.01132020   -0.00430983
     atom    7 type  2   force =    -0.00463728   -0.01143317    0.00328513
     atom    8 type  2   force =    -0.01328787    0.01123508    0.00065437
     atom    9 type  2   force =    -0.00389648   -0.00490199    0.00415362
     atom   10 type  2   force =     0.08526964    0.00735950   -0.05608431
     atom   11 type  3   force =    -0.02141933    0.00862086    0.00713208
     atom   12 type  3   force =    -0.00141166   -0.00792747   -0.00923372
     atom   13 type  3   force =     0.00223132   -0.00524292    0.00841488
     atom   14 type  3   force =     0.02689790    0.00525233   -0.00873413
     atom   15 type  3   force =     0.00210894    0.00793226    0.00977748
     atom   16 type  3   force =     0.00208805   -0.00794921   -0.00906177
     atom   17 type  3   force =    -0.00085453   -0.00515509    0.00819855
     atom   18 type  3   force =    -0.07531842    0.00542095    0.05506126
     atom   19 type  3   force =     0.10960496   -0.00478545   -0.08062382
     atom   20 type  3   force =    -0.00328792    0.00508558   -0.00588022

     Total force =     0.257314     Total SCF correction =     0.000281


     Computing stress (Cartesian axis) and pressure


     negative rho (up, down):  6.550E-02 0.000E+00
          total   stress  (Ry/bohr**3)                   (kbar)     P=        0.35
   0.00007634   0.00000059  -0.00004002           11.23        0.09       -5.89
   0.00000059  -0.00004644   0.00000592            0.09       -6.83        0.87
  -0.00004002   0.00000592  -0.00002270           -5.89        0.87       -3.34


     BFGS Geometry Optimization
     Energy error            =      0.0E+00 Ry
     Gradient error          =      1.3E-01 Ry/Bohr

     number of scf cycles    =   1
     number of bfgs steps    =   0

     energy             new  =   -9109.8089478621 Ry

     new trust radius        =       0.1566403622 bohr
     new conv_thr            =       0.0000000100 Ry


ATOMIC_POSITIONS (angstrom)
Ta           15.3204926408        0.9078108045       12.4854296748
Ta            6.5728352490        2.7500593715       12.5903434268
Ta            2.2764503172        0.9092637894       12.4476699639
Ta           11.0899195067        2.7503389822       12.5880586021
Ni           12.8631472856        0.9089886321       11.7627261164
Ni            4.0445829488        2.7507600746       13.2718632858
Ni            4.7900127826        0.9088733898       11.7631613743
Ni           13.6057289765        2.7507150297       13.2747472864
Ni            8.8262847397        0.9123295448       12.3704036000
Ni            0.0531996528        2.7486641604       12.6379312713
Te           14.2017077517        2.7493316421       10.5390308873
Te            5.3919748349        0.9107285269       14.4956858331
Te           10.5966138832        0.9121491290       10.5237868368
Te            1.7893838411        2.7475490959       14.5118730509
Te            3.4448046935        2.7489672548       10.5402075612
Te           12.2650944861        0.9107170235       14.4959972632
Te            7.0611662220        0.9121956103       10.5235097585
Te           15.8420451155        2.7476383264       14.5458042932
Te            0.0662993691        0.9123912108       10.7949547747
Te            8.8268180665        2.7474608551       14.1950661389



     Writing config-only to output data dir /ddn/data/physics/eamoujaes/2D-Ta2Ni3Te5/ELASTIC/C12/OUT/ta2ni3te5.save/
     NEW-OLD atomic charge density approx. for the potential

     negative rho (up, down):  6.557E-02 0.000E+00

     total cpu time spent up to now is      534.2 secs

     Self-consistent Calculation

     iteration #  1     ecut=    60.00 Ry     beta= 0.20
     Davidson diagonalization with overlap
     ethr =  1.00E-06,  avg # of iterations = 12.4

     negative rho (up, down):  6.550E-02 0.000E+00

     total cpu time spent up to now is      587.8 secs

     total energy              =   -9109.73619081 Ry
     estimated scf accuracy    <       0.31248918 Ry

     iteration #  2     ecut=    60.00 Ry     beta= 0.20
     Davidson diagonalization with overlap
     ethr =  1.42E-04,  avg # of iterations =  4.0

     negative rho (up, down):  6.550E-02 0.000E+00

     total cpu time spent up to now is      604.2 secs

     total energy              =   -9109.35036140 Ry
     estimated scf accuracy    <      15.72031711 Ry

     iteration #  3     ecut=    60.00 Ry     beta= 0.20
     Davidson diagonalization with overlap
     ethr =  1.42E-04,  avg # of iterations =  3.0

     negative rho (up, down):  6.550E-02 0.000E+00

     total cpu time spent up to now is      625.9 secs

     total energy              =   -9109.84872215 Ry
     estimated scf accuracy    <       0.18411029 Ry

     iteration #  4     ecut=    60.00 Ry     beta= 0.20
     Davidson diagonalization with overlap
     ethr =  8.37E-05,  avg # of iterations =  1.1

     negative rho (up, down):  6.549E-02 0.000E+00

     total cpu time spent up to now is      640.2 secs

     total energy              =   -9109.85484036 Ry
     estimated scf accuracy    <       0.02454578 Ry

     iteration #  5     ecut=    60.00 Ry     beta= 0.20
     Davidson diagonalization with overlap
     ethr =  1.12E-05,  avg # of iterations =  2.0

     negative rho (up, down):  6.547E-02 0.000E+00

     total cpu time spent up to now is      655.4 secs

     total energy              =   -9109.85452133 Ry
     estimated scf accuracy    <       0.00707085 Ry

     iteration #  6     ecut=    60.00 Ry     beta= 0.20
     Davidson diagonalization with overlap
     ethr =  3.21E-06,  avg # of iterations =  2.0

     negative rho (up, down):  6.545E-02 0.000E+00

     total cpu time spent up to now is      670.5 secs

     total energy              =   -9109.85473571 Ry
     estimated scf accuracy    <       0.00156276 Ry

     iteration #  7     ecut=    60.00 Ry     beta= 0.20
     Davidson diagonalization with overlap
     ethr =  7.10E-07,  avg # of iterations =  2.0

     negative rho (up, down):  6.543E-02 0.000E+00

     total cpu time spent up to now is      685.7 secs

     total energy              =   -9109.85433782 Ry
     estimated scf accuracy    <       0.00271409 Ry

     iteration #  8     ecut=    60.00 Ry     beta= 0.20
     Davidson diagonalization with overlap
     ethr =  7.10E-07,  avg # of iterations =  2.2

     negative rho (up, down):  6.539E-02 0.000E+00

     total cpu time spent up to now is      701.4 secs

     total energy              =   -9109.85354400 Ry
     estimated scf accuracy    <       0.00376824 Ry

     iteration #  9     ecut=    60.00 Ry     beta= 0.20
     Davidson diagonalization with overlap
     ethr =  7.10E-07,  avg # of iterations =  2.0

     negative rho (up, down):  6.536E-02 0.000E+00

     total cpu time spent up to now is      716.5 secs

     total energy              =   -9109.85335055 Ry
     estimated scf accuracy    <       0.00361401 Ry

     iteration # 10     ecut=    60.00 Ry     beta= 0.20
     Davidson diagonalization with overlap
     ethr =  7.10E-07,  avg # of iterations =  1.0

     negative rho (up, down):  6.534E-02 0.000E+00

     total cpu time spent up to now is      730.4 secs

     total energy              =   -9109.85319132 Ry
     estimated scf accuracy    <       0.00299690 Ry

     iteration # 11     ecut=    60.00 Ry     beta= 0.20
     Davidson diagonalization with overlap
     ethr =  7.10E-07,  avg # of iterations =  1.0

     negative rho (up, down):  6.534E-02 0.000E+00

     total cpu time spent up to now is      744.3 secs

     total energy              =   -9109.85306883 Ry
     estimated scf accuracy    <       0.00198395 Ry

     iteration # 12     ecut=    60.00 Ry     beta= 0.20
     Davidson diagonalization with overlap
     ethr =  7.10E-07,  avg # of iterations =  1.0

     negative rho (up, down):  6.534E-02 0.000E+00

     total cpu time spent up to now is      758.1 secs

     total energy              =   -9109.85307584 Ry
     estimated scf accuracy    <       0.00019656 Ry

     iteration # 13     ecut=    60.00 Ry     beta= 0.20
     Davidson diagonalization with overlap
     ethr =  8.93E-08,  avg # of iterations =  2.0

     negative rho (up, down):  6.532E-02 0.000E+00

     total cpu time spent up to now is      773.3 secs

     total energy              =   -9109.85304668 Ry
     estimated scf accuracy    <       0.00011580 Ry

     iteration # 14     ecut=    60.00 Ry     beta= 0.20
     Davidson diagonalization with overlap
     ethr =  5.26E-08,  avg # of iterations =  2.0

     negative rho (up, down):  6.532E-02 0.000E+00

     total cpu time spent up to now is      788.4 secs

     total energy              =   -9109.85304856 Ry
     estimated scf accuracy    <       0.00001749 Ry

     iteration # 15     ecut=    60.00 Ry     beta= 0.20
     Davidson diagonalization with overlap
     ethr =  7.95E-09,  avg # of iterations =  4.0

     negative rho (up, down):  6.532E-02 0.000E+00

     total cpu time spent up to now is      811.6 secs

     total energy              =   -9109.85304932 Ry
     estimated scf accuracy    <       0.00000408 Ry

     iteration # 16     ecut=    60.00 Ry     beta= 0.20
     Davidson diagonalization with overlap
     ethr =  1.86E-09,  avg # of iterations =  2.9

     negative rho (up, down):  6.532E-02 0.000E+00

     total cpu time spent up to now is      828.2 secs

     total energy              =   -9109.85304936 Ry
     estimated scf accuracy    <       0.00000328 Ry

     iteration # 17     ecut=    60.00 Ry     beta= 0.20
     Davidson diagonalization with overlap
     ethr =  1.49E-09,  avg # of iterations =  1.3

     negative rho (up, down):  6.532E-02 0.000E+00

     total cpu time spent up to now is      850.0 secs

     total energy              =   -9109.85304954 Ry
     estimated scf accuracy    <       0.00000097 Ry

     iteration # 18     ecut=    60.00 Ry     beta= 0.20
     Davidson diagonalization with overlap
     ethr =  4.39E-10,  avg # of iterations =  2.0

     negative rho (up, down):  6.532E-02 0.000E+00

     total cpu time spent up to now is      865.2 secs

     total energy              =   -9109.85304950 Ry
     estimated scf accuracy    <       0.00000093 Ry

     iteration # 19     ecut=    60.00 Ry     beta= 0.20
     Davidson diagonalization with overlap
     ethr =  4.21E-10,  avg # of iterations =  2.0

     negative rho (up, down):  6.532E-02 0.000E+00

     total cpu time spent up to now is      880.2 secs

     total energy              =   -9109.85304957 Ry
     estimated scf accuracy    <       0.00000029 Ry

     iteration # 20     ecut=    60.00 Ry     beta= 0.20
     Davidson diagonalization with overlap
     ethr =  1.31E-10,  avg # of iterations =  1.6

     negative rho (up, down):  6.532E-02 0.000E+00

     total cpu time spent up to now is      895.0 secs

     total energy              =   -9109.85304958 Ry
     estimated scf accuracy    <       0.00000014 Ry

     iteration # 21     ecut=    60.00 Ry     beta= 0.20
     Davidson diagonalization with overlap
     ethr =  6.16E-11,  avg # of iterations =  2.0

     negative rho (up, down):  6.532E-02 0.000E+00

     total cpu time spent up to now is      910.3 secs

     total energy              =   -9109.85304958 Ry
     estimated scf accuracy    <       0.00000006 Ry

     iteration # 22     ecut=    60.00 Ry     beta= 0.20
     Davidson diagonalization with overlap
     ethr =  2.50E-11,  avg # of iterations =  2.0

     negative rho (up, down):  6.532E-02 0.000E+00

     total cpu time spent up to now is      925.3 secs

     total energy              =   -9109.85304959 Ry
     estimated scf accuracy    <       0.00000005 Ry

     iteration # 23     ecut=    60.00 Ry     beta= 0.20
     Davidson diagonalization with overlap
     ethr =  2.11E-11,  avg # of iterations =  1.0

     negative rho (up, down):  6.532E-02 0.000E+00

     total cpu time spent up to now is      946.3 secs

     End of self-consistent calculation

          k = 0.0000 0.0000 0.0000 ( 85557 PWs)   bands (ev):

  -103.3458-103.3335-103.3176-103.3035-103.1175-102.9102 -68.7657 -68.7513
   -68.7217 -68.5562 -63.9203 -63.9172 -63.8953 -63.8769 -63.7532 -63.7261
   -63.6981 -63.6712 -63.6306 -63.6184 -63.6065 -63.5936 -63.5692 -63.5676
   -63.4177 -63.4157 -63.3664 -63.1935 -35.2465 -35.2412 -35.2055 -35.1942
   -35.1858 -35.1734 -35.1663 -35.1507 -35.1287 -35.0955 -35.0111 -35.0074
   -12.9925 -12.5889 -12.5377 -12.1751 -11.9713 -11.8595 -11.7153 -11.6905
   -11.5647 -11.3740  -6.2085  -5.8526  -5.7284  -5.6771  -5.5002  -5.3387
    -5.3177  -4.7796  -4.6095  -4.1828  -4.0663  -3.8749  -3.7640  -3.7303
    -3.6738  -3.6538  -3.5892  -3.5647  -3.3761  -3.3151  -3.0240  -2.9469
    -2.7694  -2.7541  -2.6970  -2.6228  -2.5921  -2.5467  -2.3387  -2.3253
    -2.2820  -2.2377  -2.0635  -2.0462  -2.0055  -1.9915  -1.9180  -1.8052
    -1.7159  -1.6758  -1.5019  -1.4513  -1.4036  -1.3714  -1.3486  -1.2871
    -1.2734  -1.2327  -1.1436  -1.1297  -1.0300  -0.8214  -0.7298  -0.6850
    -0.6615  -0.4648  -0.4110  -0.4062  -0.2549  -0.1062   0.0459   0.1303
     0.6740   0.8608   0.9936   1.0505   1.2267   1.4259   1.5888   1.6116
     1.6413   1.9102   2.1315   2.2360   2.2827   2.7272   3.0052   3.0978
     3.1911   3.2181   3.3164   3.4251

          k = 0.0000 0.4632 0.0000 ( 85637 PWs)   bands (ev):

  -103.3456-103.3336-103.3174-103.3037-103.1175-102.9102 -68.7656 -68.7512
   -68.7216 -68.5561 -63.9203 -63.9174 -63.8954 -63.8771 -63.7524 -63.7254
   -63.7004 -63.6735 -63.6290 -63.6185 -63.6049 -63.5940 -63.5692 -63.5679
   -63.4178 -63.4158 -63.3664 -63.1936 -35.2458 -35.2405 -35.2048 -35.1997
   -35.1914 -35.1728 -35.1658 -35.1562 -35.1281 -35.0947 -35.0160 -35.0077
   -12.9059 -12.5054 -12.4579 -12.1291 -11.9090 -11.8194 -11.6637 -11.6420
   -11.5183 -11.3444  -6.1276  -5.7772  -5.6402  -5.5941  -5.4395  -5.2710
    -5.2271  -4.7130  -4.5486  -4.1547  -4.0524  -3.9609  -3.8728  -3.8427
    -3.7547  -3.7019  -3.6686  -3.5878  -3.3325  -3.2716  -3.1904  -2.9773
    -2.8726  -2.8222  -2.7551  -2.7272  -2.7190  -2.6187  -2.5901  -2.3728
    -2.2368  -2.2277  -2.1962  -2.1307  -2.0913  -2.0387  -1.9502  -1.8229
    -1.7975  -1.7627  -1.7058  -1.6251  -1.5485  -1.5364  -1.4141  -1.3880
    -1.3103  -1.2978  -1.2172  -1.0233  -0.9520  -0.9113  -0.8702  -0.6665
    -0.6093  -0.5515  -0.4987  -0.3790  -0.2585  -0.1538   0.1758   0.3249
     0.5808   0.7702   1.0047   1.0651   1.2015   1.3098   1.4661   1.6558
     1.6987   1.8596   1.9193   2.0555   2.4119   2.5250   2.6908   2.6980
     2.8697   2.9448   3.3231   3.5759

          k = 0.0000 0.9263 0.0000 ( 85615 PWs)   bands (ev):

  -103.3450-103.3342-103.3169-103.3042-103.1175-102.9102 -68.7653 -68.7509
   -68.7213 -68.5558 -63.9203 -63.9177 -63.8956 -63.8773 -63.7498 -63.7228
   -63.7061 -63.6791 -63.6245 -63.6185 -63.6007 -63.5952 -63.5693 -63.5688
   -63.4178 -63.4159 -63.3664 -63.1936 -35.2440 -35.2386 -35.2141 -35.2059
   -35.2030 -35.1712 -35.1706 -35.1644 -35.1266 -35.0928 -35.0308 -35.0064
   -12.6600 -12.2753 -12.2280 -11.9982 -11.7479 -11.7108 -11.5220 -11.5006
   -11.3964 -11.2662  -5.9353  -5.5892  -5.4402  -5.3901  -5.2867  -5.0880
    -5.0054  -4.5909  -4.5833  -4.2763  -4.1822  -4.1119  -4.0304  -4.0231
    -3.9138  -3.8973  -3.8651  -3.6947  -3.5910  -3.5394  -3.2460  -3.2115
    -3.1578  -3.0858  -2.9972  -2.9428  -2.8384  -2.7016  -2.6432  -2.5602
    -2.5040  -2.4787  -2.3355  -2.3084  -2.2598  -2.0968  -2.0530  -1.9918
    -1.9588  -1.9163  -1.7734  -1.7320  -1.6936  -1.5680  -1.5354  -1.4549
    -1.4350  -1.3413  -1.2969  -1.1267  -0.9849  -0.9708  -0.9038  -0.8779
    -0.8030  -0.7141  -0.6012  -0.4650  -0.4106  -0.3245   0.4864   0.5554
     0.6441   0.9359   0.9845   1.0007   1.1422   1.2459   1.2721   1.3911
     1.7766   1.7980   1.8337   2.0805   2.1228   2.3980   2.4228   2.5763
     2.7097   2.8251   3.7278   3.8917

          k = 0.0000 1.3895 0.0000 ( 85553 PWs)   bands (ev):

  -103.3443-103.3349-103.3163-103.3048-103.1174-102.9102 -68.7649 -68.7505
   -68.7209 -68.5554 -63.9202 -63.9180 -63.8956 -63.8775 -63.7455 -63.7186
   -63.7137 -63.6865 -63.6190 -63.6185 -63.5972 -63.5957 -63.5703 -63.5693
   -63.4177 -63.4158 -63.3664 -63.1935 -35.2423 -35.2367 -35.2313 -35.2236
   -35.2011 -35.1882 -35.1691 -35.1627 -35.1246 -35.0904 -35.0492 -35.0044
   -12.3047 -11.9713 -11.8829 -11.7936 -11.5864 -11.5338 -11.3501 -11.2851
   -11.2531 -11.1700  -5.8537  -5.5297  -5.4420  -5.3886  -5.1596  -5.0145
    -4.9571  -4.8290  -4.7382  -4.5907  -4.4936  -4.3393  -4.2629  -4.0475
    -4.0204  -3.9540  -3.9359  -3.7951  -3.7318  -3.5662  -3.4442  -3.3869
    -3.2759  -3.1958  -3.1264  -3.0522  -3.0388  -2.8699  -2.6924  -2.6468
    -2.6279  -2.6134  -2.4577  -2.4380  -2.2452  -2.1877  -2.1434  -2.1179
    -2.0821  -1.9951  -1.9157  -1.8838  -1.7134  -1.6465  -1.6352  -1.5130
    -1.4816  -1.4466  -1.4006  -1.3146  -1.1414  -1.0898  -1.0492  -1.0000
    -0.9034  -0.8287  -0.7791  -0.6478  -0.5493  -0.5211   0.3932   0.5530
     0.8022   0.9741   1.0452   1.1469   1.2565   1.3037   1.4204   1.4538
     1.7265   1.8666   1.9174   2.1912   2.2463   2.3733   2.5398   2.7501
     2.8351   2.9539   3.4854   3.5406

          k = 0.0000 1.8527 0.0000 ( 85606 PWs)   bands (ev):

  -103.3435-103.3357-103.3157-103.3054-103.1174-102.9102 -68.7646 -68.7502
   -68.7206 -68.5551 -63.9200 -63.9184 -63.8957 -63.8776 -63.7403 -63.7218
   -63.7136 -63.6944 -63.6185 -63.6138 -63.5997 -63.5915 -63.5719 -63.5693
   -63.4180 -63.4158 -63.3664 -63.1938 -35.2478 -35.2401 -35.2382 -35.2327
   -35.2045 -35.1975 -35.1674 -35.1613 -35.1231 -35.0885 -35.0641 -35.0029
   -11.9687 -11.6863 -11.5608 -11.5102 -11.4422 -11.3646 -11.2477 -11.1861
   -11.0946 -11.0859  -6.0640  -5.9573  -5.9014  -5.8680  -5.3298  -5.1931
    -5.0471  -4.9232  -4.8215  -4.6232  -4.4168  -4.3809  -4.2319  -4.0161
    -3.9764  -3.7884  -3.7055  -3.6461  -3.5939  -3.5876  -3.4476  -3.4259
    -3.3505  -3.3045  -3.2520  -3.2186  -3.0186  -2.9249  -2.8578  -2.8012
    -2.6103  -2.5478  -2.5029  -2.4926  -2.2610  -2.2047  -2.1802  -2.1401
    -2.1016  -2.0633  -2.0178  -1.9304  -1.8690  -1.7852  -1.7539  -1.6339
    -1.5367  -1.5137  -1.4057  -1.3632  -1.2747  -1.2182  -1.1777  -1.1343
    -1.0151  -0.9829  -0.8889  -0.7498  -0.7200  -0.6697   0.2581   0.3891
     0.9441   0.9772   1.1451   1.1519   1.2669   1.7094   1.7269   1.7432
     1.8056   1.8691   2.0545   2.0892   2.2475   2.5761   2.7164   2.7738
     3.0274   3.1603   3.2018   3.3060

          k = 0.0000-2.3158 0.0000 ( 85522 PWs)   bands (ev):

  -103.3432-103.3360-103.3155-103.3056-103.1174-102.9102 -68.7645 -68.7501
   -68.7205 -68.5550 -63.9198 -63.9185 -63.8957 -63.8776 -63.7362 -63.7269
   -63.7099 -63.6991 -63.6184 -63.6113 -63.6010 -63.5896 -63.5726 -63.5692
   -63.4180 -63.4158 -63.3663 -63.1938 -35.2528 -35.2450 -35.2380 -35.2327
   -35.2093 -35.1974 -35.1668 -35.1608 -35.1224 -35.0878 -35.0697 -35.0022
   -11.8454 -11.5022 -11.4428 -11.3420 -11.3179 -11.2939 -11.2867 -11.2003
   -11.0497 -11.0406  -6.2071  -6.1715  -6.1297  -6.1035  -5.5077  -5.3670
    -5.0758  -4.9867  -4.7754  -4.7509  -4.3691  -4.1791  -3.9693  -3.9502
    -3.8663  -3.8412  -3.7090  -3.5911  -3.5006  -3.4999  -3.4500  -3.4419
    -3.4235  -3.3954  -3.1576  -3.1441  -3.0824  -3.0794  -2.9531  -2.8443
    -2.5535  -2.5449  -2.4776  -2.4526  -2.2684  -2.1978  -2.1807  -2.1513
    -2.1375  -2.1125  -2.0055  -1.9137  -1.8831  -1.8603  -1.7995  -1.7739
    -1.5467  -1.4887  -1.4243  -1.3126  -1.3051  -1.2866  -1.2559  -1.2467
    -1.1266  -1.0963  -0.9117  -0.8976  -0.7029  -0.6754   0.2370   0.3400
     0.9517   1.0364   1.0867   1.1417   1.3856   1.4791   1.7538   1.7773
     2.0331   2.0527   2.1586   2.2587   2.3052   2.4086   2.6744   2.6963
     3.0093   3.0390   3.2929   3.3870

          k =-0.5000 0.0000 0.0000 ( 85656 PWs)   bands (ev):

  -103.3458-103.3335-103.3176-103.3036-103.1175-102.9102 -68.7657 -68.7513
   -68.7217 -68.5562 -63.9205 -63.9173 -63.8954 -63.8771 -63.7533 -63.7263
   -63.6982 -63.6713 -63.6306 -63.6185 -63.6065 -63.5936 -63.5692 -63.5676
   -63.4178 -63.4159 -63.3663 -63.1936 -35.2465 -35.2412 -35.2055 -35.1942
   -35.1859 -35.1734 -35.1663 -35.1507 -35.1287 -35.0955 -35.0111 -35.0074
   -12.9605 -12.7629 -12.2248 -12.1817 -12.1450 -11.9558 -11.6938 -11.6390
   -11.4618 -11.4432  -6.1650  -6.0127  -5.7387  -5.6853  -5.4169  -5.2970
    -5.0866  -4.9376  -4.6020  -4.5011  -3.8891  -3.8278  -3.7670  -3.6931
    -3.6622  -3.6283  -3.4810  -3.4540  -3.3776  -3.3101  -3.1750  -3.0086
    -2.9993  -2.8241  -2.6444  -2.6324  -2.5474  -2.5451  -2.3513  -2.2768
    -2.2500  -2.2347  -2.1192  -2.0227  -1.9948  -1.9381  -1.8831  -1.7781
    -1.7277  -1.6184  -1.5881  -1.4656  -1.4141  -1.3510  -1.3243  -1.2876
    -1.2621  -1.2173  -1.1845  -1.1049  -0.9530  -0.8908  -0.7058  -0.6881
    -0.6177  -0.5257  -0.3695  -0.3497  -0.2758  -0.1844   0.0513   0.1144
     0.7922   0.8726   0.9696   1.0237   1.3473   1.3605   1.4273   1.5033
     1.7064   1.8123   2.1931   2.2370   2.4145   2.5336   3.0712   3.1401
     3.1448   3.2191   3.3628   3.4295

          k =-0.5000 0.4632 0.0000 ( 85634 PWs)   bands (ev):

  -103.3456-103.3336-103.3174-103.3037-103.1175-102.9102 -68.7656 -68.7512
   -68.7216 -68.5561 -63.9204 -63.9173 -63.8954 -63.8771 -63.7525 -63.7255
   -63.7004 -63.6735 -63.6289 -63.6184 -63.6048 -63.5940 -63.5692 -63.5679
   -63.4178 -63.4158 -63.3664 -63.1936 -35.2458 -35.2405 -35.2048 -35.1997
   -35.1914 -35.1728 -35.1658 -35.1562 -35.1281 -35.0947 -35.0160 -35.0077
   -12.8754 -12.6758 -12.1527 -12.1281 -12.0784 -11.9130 -11.6480 -11.5923
   -11.4235 -11.4071  -6.0808  -5.9333  -5.6551  -5.5994  -5.3508  -5.2203
    -5.0226  -4.8797  -4.5485  -4.4534  -3.9646  -3.9359  -3.8604  -3.8053
    -3.7040  -3.5904  -3.4842  -3.4649  -3.4519  -3.3853  -3.1395  -3.0830
    -3.0188  -2.9239  -2.7575  -2.7254  -2.6935  -2.6465  -2.4363  -2.4173
    -2.3555  -2.2191  -2.1425  -2.1361  -2.0440  -1.9742  -1.9534  -1.8704
    -1.8423  -1.7257  -1.6810  -1.6138  -1.5919  -1.5381  -1.4530  -1.3633
    -1.2725  -1.2437  -1.1620  -1.0897  -0.9348  -0.8891  -0.7814  -0.7096
    -0.6357  -0.5797  -0.5443  -0.4631  -0.1883  -0.0846   0.1989   0.2655
     0.6649   0.7235   1.0727   1.1214   1.2927   1.3038   1.3803   1.4587
     1.6685   1.7544   2.0289   2.1449   2.3020   2.4236   2.6945   2.7829
     2.8451   2.9026   3.4328   3.5023

          k =-0.5000 0.9263 0.0000 ( 85626 PWs)   bands (ev):

  -103.3450-103.3342-103.3169-103.3042-103.1175-102.9102 -68.7653 -68.7509
   -68.7213 -68.5558 -63.9203 -63.9176 -63.8955 -63.8773 -63.7498 -63.7228
   -63.7061 -63.6791 -63.6245 -63.6185 -63.6008 -63.5953 -63.5693 -63.5689
   -63.4178 -63.4158 -63.3665 -63.1936 -35.2440 -35.2386 -35.2141 -35.2059
   -35.2030 -35.1712 -35.1705 -35.1644 -35.1266 -35.0928 -35.0308 -35.0064
   -12.6347 -12.4273 -12.0086 -11.9386 -11.8778 -11.7946 -11.5266 -11.4701
   -11.3184 -11.3084  -5.8744  -5.7364  -5.4402  -5.3814  -5.2032  -5.0437
    -4.9183  -4.8354  -4.4214  -4.4170  -4.2237  -4.1669  -4.0843  -4.0506
    -3.7840  -3.7099  -3.6928  -3.6645  -3.5936  -3.5340  -3.3439  -3.2339
    -3.2151  -3.1909  -2.9536  -2.9379  -2.8202  -2.6985  -2.6625  -2.6415
    -2.5109  -2.4736  -2.4121  -2.3463  -2.1255  -2.1124  -2.0575  -2.0131
    -1.9750  -1.8910  -1.8417  -1.7117  -1.5912  -1.5692  -1.5382  -1.4274
    -1.3366  -1.3251  -1.2727  -1.2468  -1.0965  -1.0148  -0.9344  -0.8664
    -0.8160  -0.7162  -0.5043  -0.4227  -0.3663  -0.2873   0.4498   0.5334
     0.7491   0.8068   0.9914   1.0332   1.2507   1.2879   1.3855   1.4379
     1.5229   1.6187   1.9187   1.9622   2.2370   2.3748   2.4975   2.5392
     2.6370   2.7936   3.7892   3.8396

          k =-0.5000 1.3895 0.0000 ( 85524 PWs)   bands (ev):

  -103.3443-103.3349-103.3163-103.3048-103.1174-102.9102 -68.7649 -68.7505
   -68.7209 -68.5554 -63.9201 -63.9180 -63.8956 -63.8774 -63.7455 -63.7186
   -63.7137 -63.6865 -63.6190 -63.6185 -63.5972 -63.5957 -63.5703 -63.5692
   -63.4177 -63.4158 -63.3664 -63.1936 -35.2423 -35.2367 -35.2313 -35.2236
   -35.2011 -35.1882 -35.1691 -35.1627 -35.1246 -35.0904 -35.0492 -35.0044
   -12.2896 -12.0610 -11.8332 -11.6554 -11.6345 -11.5953 -11.3760 -11.3222
   -11.1832 -11.1804  -5.7867  -5.6617  -5.3327  -5.2835  -5.1781  -5.1676
    -5.0770  -4.8926  -4.5959  -4.5643  -4.4939  -4.3599  -4.1611  -4.0625
    -4.0540  -3.9358  -3.8675  -3.8238  -3.6227  -3.5900  -3.5599  -3.4402
    -3.2270  -3.1341  -3.0711  -3.0403  -2.9964  -2.9037  -2.8365  -2.7520
    -2.5949  -2.5383  -2.4960  -2.4523  -2.2602  -2.1861  -2.1567  -2.1142
    -2.0717  -2.0138  -1.9738  -1.8775  -1.6677  -1.5809  -1.5611  -1.5525
    -1.4749  -1.4407  -1.3905  -1.3799  -1.1305  -1.1056  -1.0737  -1.0140
    -0.8885  -0.8353  -0.7406  -0.6509  -0.5790  -0.4959   0.3891   0.5074
     0.9331   1.0175   1.1335   1.1989   1.2680   1.3148   1.3539   1.4402
     1.6763   1.7632   1.9345   1.9533   2.4195   2.5343   2.5734   2.6634
     2.7555   2.7975   3.5418   3.6250

          k =-0.5000 1.8527 0.0000 ( 85566 PWs)   bands (ev):

  -103.3435-103.3357-103.3157-103.3054-103.1174-102.9102 -68.7646 -68.7502
   -68.7206 -68.5551 -63.9200 -63.9184 -63.8957 -63.8776 -63.7403 -63.7218
   -63.7136 -63.6944 -63.6185 -63.6138 -63.5996 -63.5915 -63.5719 -63.5693
   -63.4179 -63.4158 -63.3664 -63.1937 -35.2478 -35.2401 -35.2382 -35.2327
   -35.2045 -35.1975 -35.1674 -35.1613 -35.1231 -35.0885 -35.0641 -35.0029
   -11.9663 -11.6740 -11.6227 -11.4800 -11.3926 -11.3663 -11.2716 -11.2063
   -11.0868 -11.0809  -6.0975  -6.0446  -5.8046  -5.7568  -5.3808  -5.2318
    -5.0617  -4.9491  -4.8047  -4.6629  -4.3928  -4.3033  -4.2818  -4.0587
    -3.9514  -3.8307  -3.7192  -3.6768  -3.5669  -3.5328  -3.4264  -3.3911
    -3.3643  -3.2906  -3.2180  -3.1489  -3.0145  -2.9377  -2.8270  -2.7837
    -2.6841  -2.6714  -2.4605  -2.4282  -2.3262  -2.2787  -2.1924  -2.1298
    -2.1009  -2.0666  -2.0196  -1.9894  -1.8044  -1.7262  -1.6727  -1.6334
    -1.5645  -1.5170  -1.4568  -1.3667  -1.2733  -1.2320  -1.1570  -1.0866
    -1.0693  -0.9839  -0.9153  -0.8044  -0.6984  -0.6369   0.2678   0.3810
     0.9261   1.0436   1.1988   1.2822   1.3916   1.4981   1.7151   1.7378
     1.7677   1.8457   2.0171   2.0981   2.2840   2.3963   2.7787   2.8529
     2.9530   3.0102   3.2742   3.3047

          k =-0.5000-2.3158 0.0000 ( 85612 PWs)   bands (ev):

  -103.3432-103.3360-103.3155-103.3056-103.1174-102.9102 -68.7645 -68.7501
   -68.7205 -68.5550 -63.9199 -63.9185 -63.8957 -63.8777 -63.7363 -63.7269
   -63.7099 -63.6991 -63.6185 -63.6114 -63.6012 -63.5898 -63.5727 -63.5693
   -63.4180 -63.4158 -63.3664 -63.1939 -35.2528 -35.2450 -35.2380 -35.2327
   -35.2093 -35.1974 -35.1668 -35.1608 -35.1224 -35.0878 -35.0697 -35.0022
   -11.8453 -11.5011 -11.4432 -11.3422 -11.3192 -11.2922 -11.2877 -11.2024
   -11.0475 -11.0402  -6.2982  -6.2660  -6.0071  -5.9652  -5.5490  -5.3691
    -5.0907  -4.9251  -4.8564  -4.8071  -4.3331  -4.1536  -4.0572  -4.0332
    -3.7502  -3.7339  -3.6909  -3.6594  -3.5824  -3.4838  -3.4598  -3.4257
    -3.4127  -3.3781  -3.2490  -3.2416  -2.9344  -2.8650  -2.8490  -2.8009
    -2.6946  -2.6695  -2.4458  -2.4352  -2.2939  -2.2707  -2.2129  -2.1686
    -2.1552  -2.1226  -1.9694  -1.9126  -1.8849  -1.8195  -1.7616  -1.6981
    -1.5969  -1.5011  -1.4766  -1.3193  -1.3157  -1.2923  -1.2408  -1.2317
    -1.1234  -1.1154  -0.9245  -0.8951  -0.6873  -0.6813   0.2431   0.3474
     0.9351   1.0902   1.1441   1.2321   1.3245   1.4085   1.7938   1.7985
     2.0771   2.0891   2.1516   2.1784   2.1941   2.3293   2.6971   2.7450
     2.8985   2.9099   3.5279   3.5676

     the Fermi energy is    -0.0183 ev

!    total energy              =   -9109.85304958 Ry
     total all-electron energy =     -9109.853050 Ry
     estimated scf accuracy    <          8.8E-09 Ry
     smearing contrib. (-TS)   =      -0.00000060 Ry
     internal energy E=F+TS    =   -9109.85304899 Ry

     The total energy is F=E-TS. E is the sum of the following terms:
     one-electron contribution =  -16392.94214698 Ry
     hartree contribution      =    8055.12057609 Ry
     xc contribution           =    -364.92667116 Ry
     ewald contribution        =    5860.60974747 Ry
     one-center paw contrib.   =   -6267.71455439 Ry

     convergence has been achieved in  23 iterations

     negative rho (up, down):  6.532E-02 0.000E+00

     Forces acting on atoms (cartesian axes, Ry/au):

     atom    1 type  1   force =    -0.03930438   -0.00896519    0.02162491
     atom    2 type  1   force =    -0.00117722    0.00781875   -0.00351788
     atom    3 type  1   force =     0.01440072   -0.00827641    0.00389731
     atom    4 type  1   force =    -0.00068184    0.00794356   -0.00480517
     atom    5 type  2   force =    -0.00636200   -0.00812590    0.00080297
     atom    6 type  2   force =     0.00607421    0.00806280   -0.00310831
     atom    7 type  2   force =    -0.00137419   -0.00809165    0.00259004
     atom    8 type  2   force =    -0.01576916    0.00832187    0.00199512
     atom    9 type  2   force =    -0.00088814   -0.00429659    0.00364892
     atom   10 type  2   force =     0.04022273    0.00487166   -0.02546520
     atom   11 type  3   force =    -0.01674798    0.00614632    0.00651313
     atom   12 type  3   force =    -0.00090157   -0.00586210   -0.00800704
     atom   13 type  3   force =    -0.00065733   -0.00416506    0.00595138
     atom   14 type  3   force =     0.01901784    0.00420598   -0.00457838
     atom   15 type  3   force =     0.00483790    0.00595536    0.00757391
     atom   16 type  3   force =    -0.00117196   -0.00599459   -0.00633886
     atom   17 type  3   force =    -0.00085969   -0.00416093    0.00616765
     atom   18 type  3   force =    -0.03852397    0.00408954    0.02174064
     atom   19 type  3   force =     0.03936260   -0.00387383   -0.02097971
     atom   20 type  3   force =     0.00050342    0.00439640   -0.00570543

     Total force =     0.103326     Total SCF correction =     0.000361


     Computing stress (Cartesian axis) and pressure


     negative rho (up, down):  6.532E-02 0.000E+00
          total   stress  (Ry/bohr**3)                   (kbar)     P=       -1.68
   0.00005338   0.00000020  -0.00001406            7.85        0.03       -2.07
   0.00000020  -0.00004388   0.00000489            0.03       -6.45        0.72
  -0.00001406   0.00000489  -0.00004372           -2.07        0.72       -6.43

     Energy error            =      4.4E-02 Ry
     Gradient error          =      4.0E-02 Ry/Bohr

     number of scf cycles    =   2
     number of bfgs steps    =   1

     energy             old  =   -9109.8089478621 Ry
     energy             new  =   -9109.8530495847 Ry

     CASE: energy            _new < energy            _old

     new trust radius        =       0.0817800800 bohr
     new conv_thr            =       0.0000000040 Ry


ATOMIC_POSITIONS (angstrom)
Ta           15.2836808166        0.8998460004       12.5057932397
Ta            6.5718939763        2.7569625979       12.5872717357
Ta            2.2892379765        0.9019536349       12.4511753733
Ta           11.0895497718        2.7573616102       12.5837761567
Ni           12.8576736782        0.9017936009       11.7634583178
Ni            4.0497749676        2.7579040256       13.2691105577
Ni            4.7887276560        0.9017020703       11.7654474880
Ni           13.5919777011        2.7580773265       13.2764614904
Ni            8.8254317241        0.9085507990       12.3736125025
Ni            0.0895568261        2.7529936016       12.6148609993
Te           14.1869206566        2.7547773049       10.5447515735
Te            5.3911723745        0.9055420404       14.4886413856
Te           10.5961101410        0.9084738139       10.5290614653
Te            1.8062392828        2.7512594722       14.5077589074
Te            3.4489744310        2.7542332288       10.5468969739
Te           12.2641492106        0.9054172443       14.4903767499
Te            7.0604132937        0.9085259979       10.5289630381
Te           15.8073818324        2.7512538146       14.5656793801
Te            0.1025315716        0.9089751516       10.7750896220
Te            8.8271644749        2.7513291181       14.1900640428



     Writing config-only to output data dir /ddn/data/physics/eamoujaes/2D-Ta2Ni3Te5/ELASTIC/C12/OUT/ta2ni3te5.save/
     NEW-OLD atomic charge density approx. for the potential

     negative rho (up, down):  6.552E-02 0.000E+00

     total cpu time spent up to now is     1031.8 secs

     Self-consistent Calculation

     iteration #  1     ecut=    60.00 Ry     beta= 0.20
     Davidson diagonalization with overlap
     ethr =  1.00E-06,  avg # of iterations = 12.2

     negative rho (up, down):  6.544E-02 0.000E+00

     total cpu time spent up to now is     1074.1 secs

     total energy              =   -9109.80795099 Ry
     estimated scf accuracy    <       0.15044306 Ry

     iteration #  2     ecut=    60.00 Ry     beta= 0.20
     Davidson diagonalization with overlap
     ethr =  6.84E-05,  avg # of iterations =  4.0

     negative rho (up, down):  6.543E-02 0.000E+00

     total cpu time spent up to now is     1090.7 secs

     total energy              =   -9109.64570683 Ry
     estimated scf accuracy    <       6.32494275 Ry

     iteration #  3     ecut=    60.00 Ry     beta= 0.20
     Davidson diagonalization with overlap
     ethr =  6.84E-05,  avg # of iterations =  3.0

     negative rho (up, down):  6.544E-02 0.000E+00

     total cpu time spent up to now is     1106.6 secs

     total energy              =   -9109.86280325 Ry
     estimated scf accuracy    <       0.08465293 Ry

     iteration #  4     ecut=    60.00 Ry     beta= 0.20
     Davidson diagonalization with overlap
     ethr =  3.85E-05,  avg # of iterations =  1.2

     negative rho (up, down):  6.544E-02 0.000E+00

     total cpu time spent up to now is     1121.0 secs

     total energy              =   -9109.86604157 Ry
     estimated scf accuracy    <       0.00666806 Ry

     iteration #  5     ecut=    60.00 Ry     beta= 0.20
     Davidson diagonalization with overlap
     ethr =  3.03E-06,  avg # of iterations =  2.3

     negative rho (up, down):  6.542E-02 0.000E+00

     total cpu time spent up to now is     1136.7 secs

     total energy              =   -9109.86595761 Ry
     estimated scf accuracy    <       0.00276774 Ry

     iteration #  6     ecut=    60.00 Ry     beta= 0.20
     Davidson diagonalization with overlap
     ethr =  1.26E-06,  avg # of iterations =  2.0

     negative rho (up, down):  6.540E-02 0.000E+00

     total cpu time spent up to now is     1151.9 secs

     total energy              =   -9109.86606064 Ry
     estimated scf accuracy    <       0.00122779 Ry

     iteration #  7     ecut=    60.00 Ry     beta= 0.20
     Davidson diagonalization with overlap
     ethr =  5.58E-07,  avg # of iterations =  1.9

     negative rho (up, down):  6.537E-02 0.000E+00

     total cpu time spent up to now is     1166.8 secs

     total energy              =   -9109.86578474 Ry
     estimated scf accuracy    <       0.00213250 Ry

     iteration #  8     ecut=    60.00 Ry     beta= 0.20
     Davidson diagonalization with overlap
     ethr =  5.58E-07,  avg # of iterations =  1.2

     negative rho (up, down):  6.534E-02 0.000E+00

     total cpu time spent up to now is     1181.4 secs

     total energy              =   -9109.86554161 Ry
     estimated scf accuracy    <       0.00237954 Ry

     iteration #  9     ecut=    60.00 Ry     beta= 0.20
     Davidson diagonalization with overlap
     ethr =  5.58E-07,  avg # of iterations =  1.0

     negative rho (up, down):  6.533E-02 0.000E+00

     total cpu time spent up to now is     1195.3 secs

     total energy              =   -9109.86546026 Ry
     estimated scf accuracy    <       0.00157910 Ry

     iteration # 10     ecut=    60.00 Ry     beta= 0.20
     Davidson diagonalization with overlap
     ethr =  5.58E-07,  avg # of iterations =  1.0

     negative rho (up, down):  6.531E-02 0.000E+00

     total cpu time spent up to now is     1213.1 secs

     total energy              =   -9109.86541121 Ry
     estimated scf accuracy    <       0.00097348 Ry

     iteration # 11     ecut=    60.00 Ry     beta= 0.20
     Davidson diagonalization with overlap
     ethr =  4.42E-07,  avg # of iterations =  1.0

     negative rho (up, down):  6.531E-02 0.000E+00

     total cpu time spent up to now is     1227.0 secs

     total energy              =   -9109.86537911 Ry
     estimated scf accuracy    <       0.00054408 Ry

     iteration # 12     ecut=    60.00 Ry     beta= 0.20
     Davidson diagonalization with overlap
     ethr =  2.47E-07,  avg # of iterations =  1.0

     negative rho (up, down):  6.530E-02 0.000E+00

     total cpu time spent up to now is     1246.0 secs

     total energy              =   -9109.86538296 Ry
     estimated scf accuracy    <       0.00006367 Ry

     iteration # 13     ecut=    60.00 Ry     beta= 0.20
     Davidson diagonalization with overlap
     ethr =  2.89E-08,  avg # of iterations =  2.0

     negative rho (up, down):  6.529E-02 0.000E+00

     total cpu time spent up to now is     1261.2 secs

     total energy              =   -9109.86537589 Ry
     estimated scf accuracy    <       0.00003509 Ry

     iteration # 14     ecut=    60.00 Ry     beta= 0.20
     Davidson diagonalization with overlap
     ethr =  1.60E-08,  avg # of iterations =  2.0

     negative rho (up, down):  6.529E-02 0.000E+00

     total cpu time spent up to now is     1276.4 secs

     total energy              =   -9109.86537608 Ry
     estimated scf accuracy    <       0.00000783 Ry

     iteration # 15     ecut=    60.00 Ry     beta= 0.20
     Davidson diagonalization with overlap
     ethr =  3.56E-09,  avg # of iterations =  4.0

     negative rho (up, down):  6.529E-02 0.000E+00

     total cpu time spent up to now is     1292.5 secs

     total energy              =   -9109.86537683 Ry
     estimated scf accuracy    <       0.00000151 Ry

     iteration # 16     ecut=    60.00 Ry     beta= 0.20
     Davidson diagonalization with overlap
     ethr =  6.86E-10,  avg # of iterations =  2.6

     negative rho (up, down):  6.529E-02 0.000E+00

     total cpu time spent up to now is     1308.2 secs

     total energy              =   -9109.86537699 Ry
     estimated scf accuracy    <       0.00000143 Ry

     iteration # 17     ecut=    60.00 Ry     beta= 0.20
     Davidson diagonalization with overlap
     ethr =  6.49E-10,  avg # of iterations =  2.0

     negative rho (up, down):  6.529E-02 0.000E+00

     total cpu time spent up to now is     1323.2 secs

     total energy              =   -9109.86537703 Ry
     estimated scf accuracy    <       0.00000091 Ry

     iteration # 18     ecut=    60.00 Ry     beta= 0.20
     Davidson diagonalization with overlap
     ethr =  4.15E-10,  avg # of iterations =  1.1

     negative rho (up, down):  6.529E-02 0.000E+00

     total cpu time spent up to now is     1337.5 secs

     total energy              =   -9109.86537691 Ry
     estimated scf accuracy    <       0.00000034 Ry

     iteration # 19     ecut=    60.00 Ry     beta= 0.20
     Davidson diagonalization with overlap
     ethr =  1.53E-10,  avg # of iterations =  2.0

     negative rho (up, down):  6.529E-02 0.000E+00

     total cpu time spent up to now is     1352.9 secs

     total energy              =   -9109.86537696 Ry
     estimated scf accuracy    <       0.00000020 Ry

     iteration # 20     ecut=    60.00 Ry     beta= 0.20
     Davidson diagonalization with overlap
     ethr =  9.12E-11,  avg # of iterations =  1.0

     negative rho (up, down):  6.529E-02 0.000E+00

     total cpu time spent up to now is     1366.8 secs

     total energy              =   -9109.86537698 Ry
     estimated scf accuracy    <       0.00000008 Ry

     iteration # 21     ecut=    60.00 Ry     beta= 0.20
     Davidson diagonalization with overlap
     ethr =  3.55E-11,  avg # of iterations =  2.0

     negative rho (up, down):  6.529E-02 0.000E+00

     total cpu time spent up to now is     1382.1 secs

     total energy              =   -9109.86537698 Ry
     estimated scf accuracy    <       0.00000003 Ry

     iteration # 22     ecut=    60.00 Ry     beta= 0.20
     Davidson diagonalization with overlap
     ethr =  1.22E-11,  avg # of iterations =  2.0

     negative rho (up, down):  6.529E-02 0.000E+00

     total cpu time spent up to now is     1397.2 secs

     total energy              =   -9109.86537698 Ry
     estimated scf accuracy    <       0.00000001 Ry

     iteration # 23     ecut=    60.00 Ry     beta= 0.20
     Davidson diagonalization with overlap
     ethr =  5.10E-12,  avg # of iterations =  1.2

     negative rho (up, down):  6.529E-02 0.000E+00

     total cpu time spent up to now is     1413.4 secs

     End of self-consistent calculation

          k = 0.0000 0.0000 0.0000 ( 85557 PWs)   bands (ev):

  -103.3977-103.3778-103.3365-103.3257-103.0386-102.9169 -68.7451 -68.7362
   -68.6997 -68.6263 -63.9668 -63.9621 -63.9137 -63.9097 -63.8103 -63.7454
   -63.7422 -63.6894 -63.6812 -63.6456 -63.6213 -63.5850 -63.5246 -63.4925
   -63.4202 -63.3723 -63.3468 -63.2038 -35.2283 -35.2211 -35.1945 -35.1759
   -35.1690 -35.1558 -35.1506 -35.1478 -35.1402 -35.1193 -35.0709 -35.0617
   -12.9662 -12.6017 -12.5398 -12.1410 -11.9812 -11.8567 -11.7277 -11.6940
   -11.5611 -11.3806  -6.2073  -5.8725  -5.7202  -5.6723  -5.4729  -5.3526
    -5.3268  -4.7696  -4.6287  -4.1700  -4.1109  -3.8556  -3.7750  -3.7608
    -3.7293  -3.6853  -3.6143  -3.5751  -3.4189  -3.3289  -2.9848  -2.9779
    -2.7971  -2.7686  -2.6890  -2.6181  -2.5875  -2.5582  -2.3589  -2.3525
    -2.2453  -2.2348  -2.0711  -2.0643  -2.0231  -1.9864  -1.9015  -1.8276
    -1.6931  -1.6497  -1.4896  -1.4200  -1.4068  -1.3799  -1.3703  -1.3204
    -1.2821  -1.2622  -1.1575  -1.1388  -1.0255  -0.8250  -0.7492  -0.7090
    -0.6731  -0.4354  -0.4060  -0.3867  -0.2640  -0.0936   0.0593   0.1176
     0.6653   0.8838   1.0026   1.0660   1.2379   1.4366   1.5967   1.6118
     1.6569   1.9480   2.1073   2.2312   2.2517   2.6803   3.0191   3.1214
     3.2005   3.2409   3.3194   3.4262

          k = 0.0000 0.4632 0.0000 ( 85637 PWs)   bands (ev):

  -103.3975-103.3779-103.3362-103.3260-103.0386-102.9169 -68.7450 -68.7361
   -68.6995 -68.6262 -63.9669 -63.9623 -63.9138 -63.9099 -63.8098 -63.7446
   -63.7443 -63.6918 -63.6795 -63.6460 -63.6195 -63.5855 -63.5247 -63.4926
   -63.4203 -63.3724 -63.3469 -63.2039 -35.2276 -35.2204 -35.1937 -35.1814
   -35.1746 -35.1552 -35.1499 -35.1472 -35.1458 -35.1187 -35.0765 -35.0612
   -12.8781 -12.5151 -12.4630 -12.0948 -11.9191 -11.8186 -11.6742 -11.6457
   -11.5151 -11.3513  -6.1268  -5.7979  -5.6303  -5.5887  -5.4134  -5.2823
    -5.2372  -4.7034  -4.5704  -4.1442  -4.0965  -3.9806  -3.8844  -3.8535
    -3.7921  -3.7161  -3.6975  -3.5992  -3.3565  -3.2892  -3.1648  -3.0061
    -2.8756  -2.8221  -2.8058  -2.7282  -2.7225  -2.6242  -2.5874  -2.3333
    -2.2524  -2.2328  -2.2033  -2.1407  -2.0868  -2.0587  -1.9156  -1.8232
    -1.7989  -1.7512  -1.7091  -1.6535  -1.5511  -1.5479  -1.4225  -1.3929
    -1.3614  -1.2928  -1.2064  -1.0128  -0.9440  -0.9325  -0.8931  -0.6704
    -0.6139  -0.5661  -0.4962  -0.3555  -0.2360  -0.1616   0.1798   0.3223
     0.5969   0.7589   1.0237   1.0812   1.2154   1.3057   1.4759   1.6691
     1.7078   1.8864   1.8930   2.0353   2.4124   2.5348   2.6662   2.7132
     2.8508   2.9504   3.3324   3.5680

          k = 0.0000 0.9263 0.0000 ( 85615 PWs)   bands (ev):

  -103.3972-103.3782-103.3355-103.3267-103.0386-102.9169 -68.7447 -68.7358
   -68.6992 -68.6259 -63.9671 -63.9625 -63.9138 -63.9102 -63.8078 -63.7493
   -63.7419 -63.6976 -63.6749 -63.6473 -63.6148 -63.5868 -63.5247 -63.4926
   -63.4204 -63.3724 -63.3469 -63.2039 -35.2257 -35.2186 -35.1960 -35.1917
   -35.1891 -35.1607 -35.1535 -35.1479 -35.1457 -35.1172 -35.0914 -35.0597
   -12.6269 -12.2690 -12.2487 -11.9635 -11.7561 -11.7190 -11.5206 -11.5106
   -11.3948 -11.2742  -5.9353  -5.6123  -5.4256  -5.3861  -5.2630  -5.0972
    -5.0162  -4.6291  -4.5761  -4.2987  -4.2008  -4.1273  -4.0427  -4.0288
    -3.9268  -3.9009  -3.8696  -3.6928  -3.5886  -3.5441  -3.2656  -3.2154
[...]
   -63.4245 -63.4209 -63.2744 -63.2697 -35.1975 -35.1961 -35.1947 -35.1940
   -35.1606 -35.1591 -35.1584 -35.1575 -35.1238 -35.1200 -35.1181 -35.1144
   -12.6191 -12.3106 -12.2513 -11.9316 -11.7799 -11.7285 -11.5431 -11.5394
   -11.4237 -11.2948  -5.9187  -5.6301  -5.4165  -5.4113  -5.2398  -5.1346
    -5.0407  -4.6686  -4.5731  -4.3235  -4.2368  -4.1624  -4.0697  -4.0488
    -3.9631  -3.9351  -3.8718  -3.7089  -3.6047  -3.5526  -3.2945  -3.2407
    -3.2029  -3.1034  -3.0277  -2.9653  -2.9082  -2.7066  -2.6396  -2.5857
    -2.5278  -2.4640  -2.3634  -2.3341  -2.2534  -2.1196  -2.0784  -2.0068
    -2.0007  -1.8658  -1.8199  -1.7172  -1.7082  -1.5901  -1.5547  -1.4943
    -1.4773  -1.3889  -1.3466  -1.0982  -0.9879  -0.9514  -0.8925  -0.8752
    -0.7979  -0.7348  -0.6024  -0.4491  -0.4072  -0.3429   0.4949   0.5834
     0.6150   0.9531   1.0059   1.0231   1.1806   1.2635   1.2708   1.3988
     1.8107   1.8159   1.8210   2.0891   2.1457   2.3991   2.4388   2.5705
     2.7321   2.7664   3.7508   3.8962

          k = 0.0000 1.3895 0.0000 ( 85553 PWs)   bands (ev):

  -103.3849-103.3829-103.3786-103.3695-102.9702-102.9667 -68.7006 -68.6985
   -68.6982 -68.6972 -63.9623 -63.9617 -63.9605 -63.9503 -63.7913 -63.7863
   -63.7589 -63.7523 -63.6603 -63.6566 -63.6409 -63.6338 -63.4582 -63.4559
   -63.4245 -63.4209 -63.2744 -63.2696 -35.1951 -35.1937 -35.1923 -35.1917
   -35.1789 -35.1774 -35.1765 -35.1757 -35.1211 -35.1183 -35.1158 -35.1132
   -12.2382 -11.9566 -11.9488 -11.7375 -11.6124 -11.5807 -11.3666 -11.3152
   -11.2855 -11.2013  -5.8471  -5.5753  -5.4804  -5.4388  -5.1093  -5.0885
    -5.0000  -4.8643  -4.7404  -4.5769  -4.4500  -4.3992  -4.2372  -4.0853
    -4.0669  -3.9970  -3.9337  -3.8059  -3.7355  -3.5997  -3.4818  -3.4108
    -3.3489  -3.2296  -3.0964  -3.0774  -3.0556  -2.8984  -2.7022  -2.6962
    -2.6636  -2.6516  -2.4794  -2.4700  -2.2398  -2.1796  -2.1530  -2.1490
    -2.1294  -1.9879  -1.9615  -1.9189  -1.7497  -1.6838  -1.6479  -1.5601
    -1.4928  -1.4670  -1.4632  -1.3136  -1.1192  -1.1048  -1.0488  -0.9903
    -0.8697  -0.8672  -0.7833  -0.6257  -0.5618  -0.5468   0.4349   0.5391
     0.8269   0.9646   1.0758   1.1627   1.2913   1.3128   1.4375   1.4395
     1.7485   1.8715   1.9082   2.2143   2.2251   2.4007   2.5734   2.7303
     2.8348   2.9535   3.5247   3.5734

          k = 0.0000 1.8527 0.0000 ( 85606 PWs)   bands (ev):

  -103.3834-103.3824-103.3800-103.3701-102.9701-102.9667 -68.7003 -68.6982
   -68.6979 -68.6969 -63.9622 -63.9618 -63.9610 -63.9505 -63.7851 -63.7807
   -63.7681 -63.7610 -63.6542 -63.6514 -63.6442 -63.6361 -63.4582 -63.4560
   -63.4245 -63.4209 -63.2746 -63.2699 -35.1941 -35.1928 -35.1925 -35.1916
   -35.1913 -35.1909 -35.1898 -35.1893 -35.1188 -35.1171 -35.1138 -35.1124
   -11.8209 -11.7111 -11.5733 -11.5206 -11.4874 -11.4122 -11.2414 -11.2384
   -11.1271 -11.1221  -6.0691  -6.0036  -5.9671  -5.9306  -5.2659  -5.2132
    -5.0843  -4.9944  -4.8174  -4.6730  -4.3938  -4.3030  -4.2820  -4.0102
    -3.9776  -3.8236  -3.6987  -3.6686  -3.6080  -3.6033  -3.4358  -3.4012
    -3.3789  -3.3717  -3.2806  -3.2397  -3.0195  -2.9874  -2.8799  -2.8317
    -2.6509  -2.5931  -2.5460  -2.5440  -2.2532  -2.2144  -2.1960  -2.1862
    -2.1432  -2.1041  -2.0272  -1.9827  -1.9152  -1.8204  -1.8070  -1.6759
    -1.4953  -1.4643  -1.4539  -1.4501  -1.2562  -1.2381  -1.1812  -1.1506
    -1.0134  -0.9600  -0.9376  -0.7393  -0.7262  -0.7034   0.3013   0.3728
     1.0025   1.0503   1.1115   1.1535   1.2900   1.6851   1.7253   1.7455
     1.8480   1.8596   2.0497   2.1221   2.2220   2.5491   2.7335   2.8112
     3.0306   3.1937   3.2535   3.3199

          k = 0.0000-2.3158 0.0000 ( 85522 PWs)   bands (ev):

  -103.3821-103.3820-103.3814-103.3703-102.9701-102.9667 -68.7002 -68.6981
   -68.6978 -68.6968 -63.9619 -63.9618 -63.9611 -63.9505 -63.7772 -63.7770
   -63.7763 -63.7664 -63.6490 -63.6489 -63.6481 -63.6374 -63.4581 -63.4559
   -63.4243 -63.4208 -63.2747 -63.2699 -35.1993 -35.1979 -35.1968 -35.1961
   -35.1923 -35.1910 -35.1895 -35.1890 -35.1178 -35.1168 -35.1126 -35.1125
   -11.6143 -11.6085 -11.3872 -11.3867 -11.3665 -11.3650 -11.2690 -11.2673
   -11.0820 -11.0800  -6.2082  -6.2068  -6.1916  -6.1903  -5.4184  -5.4169
    -5.0540  -5.0533  -4.8365  -4.8330  -4.1994  -4.1960  -3.9941  -3.9927
    -3.8870  -3.8852  -3.5860  -3.5852  -3.4832  -3.4814  -3.4799  -3.4793
    -3.4464  -3.4437  -3.1598  -3.1591  -3.1325  -3.1308  -2.9586  -2.9571
    -2.5884  -2.5884  -2.4940  -2.4932  -2.2569  -2.2554  -2.2218  -2.2211
    -2.1887  -2.1844  -1.9546  -1.9498  -1.9315  -1.9299  -1.8146  -1.8114
    -1.5115  -1.5086  -1.3861  -1.3844  -1.3005  -1.2993  -1.2520  -1.2502
    -1.1572  -1.1547  -0.9137  -0.9124  -0.7005  -0.6981   0.2994   0.2999
     1.0944   1.0954   1.0970   1.0995   1.3900   1.3911   1.7856   1.7868
     2.0732   2.0742   2.1935   2.1940   2.3276   2.3334   2.7127   2.7160
     3.0482   3.0500   3.3462   3.3492

          k =-0.5000 0.0000 0.0000 ( 85656 PWs)   bands (ev):

  -103.3871-103.3842-103.3764-103.3683-102.9702-102.9667 -68.7014 -68.6993
   -68.6991 -68.6980 -63.9626 -63.9616 -63.9597 -63.9499 -63.7999 -63.7946
   -63.7421 -63.7357 -63.6730 -63.6688 -63.6368 -63.6304 -63.4582 -63.4560
   -63.4244 -63.4209 -63.2744 -63.2697 -35.2001 -35.1987 -35.1974 -35.1966
   -35.1401 -35.1385 -35.1379 -35.1370 -35.1258 -35.1243 -35.1181 -35.1169
   -12.8707 -12.8674 -12.2169 -12.2149 -12.0423 -12.0389 -11.6916 -11.6874
   -11.4804 -11.4789  -6.0895  -6.0865  -5.7152  -5.7129  -5.3781  -5.3751
    -5.0167  -5.0129  -4.5920  -4.5891  -3.8728  -3.8687  -3.7894  -3.7821
    -3.7387  -3.7344  -3.5172  -3.5133  -3.4004  -3.3934  -3.1306  -3.1257
    -2.9218  -2.9167  -2.6312  -2.6279  -2.6254  -2.6210  -2.2994  -2.2945
    -2.2630  -2.2603  -2.1145  -2.1112  -1.9950  -1.9916  -1.7576  -1.7570
    -1.6827  -1.6795  -1.5008  -1.4992  -1.3968  -1.3917  -1.3282  -1.3230
    -1.3028  -1.3006  -1.1690  -1.1658  -0.9175  -0.9163  -0.7459  -0.7444
    -0.5818  -0.5798  -0.3227  -0.3206  -0.2397  -0.2387   0.0814   0.0824
     0.8434   0.8459   1.0469   1.0477   1.4045   1.4057   1.4382   1.4410
     1.7897   1.7910   2.1967   2.1975   2.4363   2.4395   3.1521   3.1537
     3.2056   3.2071   3.4335   3.4354

          k =-0.5000 0.4632 0.0000 ( 85634 PWs)   bands (ev):

  -103.3868-103.3841-103.3766-103.3684-102.9702-102.9667 -68.7013 -68.6992
   -68.6989 -68.6979 -63.9625 -63.9615 -63.9597 -63.9499 -63.7989 -63.7936
   -63.7445 -63.7381 -63.6711 -63.6669 -63.6373 -63.6308 -63.4581 -63.4559
   -63.4244 -63.4209 -63.2744 -63.2697 -35.1994 -35.1980 -35.1966 -35.1959
   -35.1458 -35.1442 -35.1436 -35.1427 -35.1250 -35.1236 -35.1176 -35.1164
   -12.7828 -12.7795 -12.1428 -12.1408 -11.9995 -11.9961 -11.6453 -11.6411
   -11.4436 -11.4422  -6.0091  -6.0060  -5.6295  -5.6274  -5.3041  -5.3011
    -4.9586  -4.9551  -4.5440  -4.5412  -3.9920  -3.9879  -3.8990  -3.8953
    -3.6997  -3.6959  -3.5083  -3.5046  -3.4726  -3.4691  -3.1000  -3.0947
    -3.0360  -3.0330  -2.7995  -2.7946  -2.6825  -2.6797  -2.4675  -2.4630
    -2.2466  -2.2443  -2.1853  -2.1833  -2.0117  -2.0103  -1.8844  -1.8831
    -1.7762  -1.7711  -1.6944  -1.6918  -1.5587  -1.5568  -1.4365  -1.4331
    -1.2868  -1.2816  -1.1424  -1.1415  -0.9088  -0.9082  -0.7542  -0.7512
    -0.6326  -0.6317  -0.5050  -0.5027  -0.1240  -0.1231   0.2279   0.2295
     0.7067   0.7081   1.1376   1.1395   1.3354   1.3383   1.4199   1.4202
     1.7228   1.7255   2.0736   2.0755   2.3635   2.3648   2.7454   2.7458
     2.8771   2.8797   3.4896   3.4907

          k =-0.5000 0.9263 0.0000 ( 85626 PWs)   bands (ev):

  -103.3861-103.3836-103.3774-103.3689-102.9702-102.9667 -68.7010 -68.6989
   -68.6986 -68.6976 -63.9624 -63.9616 -63.9601 -63.9501 -63.7960 -63.7908
   -63.7506 -63.7442 -63.6665 -63.6624 -63.6387 -63.6320 -63.4581 -63.4559
   -63.4245 -63.4210 -63.2744 -63.2697 -35.1974 -35.1961 -35.1947 -35.1940
   -35.1606 -35.1591 -35.1584 -35.1575 -35.1231 -35.1217 -35.1163 -35.1152
   -12.5322 -12.5290 -11.9388 -11.9359 -11.8803 -11.8774 -11.5238 -11.5200
   -11.3427 -11.3416  -5.8128  -5.8091  -5.4109  -5.4089  -5.1356  -5.1327
    -4.9076  -4.9055  -4.4698  -4.4670  -4.2212  -4.2181  -4.1381  -4.1355
    -3.7662  -3.7638  -3.6673  -3.6666  -3.6096  -3.6066  -3.3171  -3.3118
    -3.2533  -3.2505  -2.9861  -2.9824  -2.7595  -2.7568  -2.7083  -2.7050
    -2.4840  -2.4833  -2.3950  -2.3940  -2.1421  -2.1383  -2.0634  -2.0617
    -1.9338  -1.9332  -1.7767  -1.7736  -1.6040  -1.6000  -1.5152  -1.5125
    -1.3741  -1.3683  -1.2758  -1.2731  -1.0578  -1.0555  -0.8875  -0.8834
    -0.7691  -0.7682  -0.4594  -0.4571  -0.3234  -0.3225   0.4827   0.4843
     0.7812   0.7837   1.0421   1.0428   1.2979   1.2996   1.4259   1.4285
     1.5741   1.5752   1.9431   1.9472   2.3274   2.3287   2.5295   2.5324
     2.6804   2.6815   3.8344   3.8350

          k =-0.5000 1.3895 0.0000 ( 85524 PWs)   bands (ev):

  -103.3849-103.3829-103.3786-103.3695-102.9701-102.9667 -68.7006 -68.6985
   -68.6982 -68.6972 -63.9622 -63.9617 -63.9605 -63.9503 -63.7913 -63.7863
   -63.7589 -63.7523 -63.6603 -63.6566 -63.6408 -63.6338 -63.4581 -63.4559
   -63.4245 -63.4209 -63.2744 -63.2697 -35.1951 -35.1937 -35.1923 -35.1917
   -35.1789 -35.1774 -35.1765 -35.1757 -35.1206 -35.1194 -35.1147 -35.1138
   -12.1628 -12.1597 -11.7259 -11.7218 -11.6509 -11.6505 -11.3756 -11.3724
   -11.2122 -11.2112  -5.7427  -5.7393  -5.3572  -5.3530  -5.2018  -5.1998
    -5.0018  -4.9990  -4.5726  -4.5696  -4.4635  -4.4603  -4.1120  -4.1092
    -3.9961  -3.9950  -3.8874  -3.8843  -3.6371  -3.6350  -3.5291  -3.5263
    -3.2011  -3.1991  -3.0824  -3.0781  -2.9825  -2.9798  -2.8234  -2.8213
    -2.5864  -2.5839  -2.5144  -2.5125  -2.2402  -2.2388  -2.1243  -2.1204
    -2.1022  -2.1009  -1.9326  -1.9323  -1.6445  -1.6391  -1.6137  -1.6084
    -1.4693  -1.4673  -1.4293  -1.4260  -1.0945  -1.0921  -1.0583  -1.0562
    -0.8614  -0.8611  -0.6928  -0.6902  -0.5484  -0.5459   0.4565   0.4574
     1.0060   1.0076   1.1550   1.1559   1.3165   1.3177   1.4067   1.4075
     1.7265   1.7293   1.9522   1.9563   2.4870   2.4894   2.6201   2.6211
     2.7738   2.7755   3.6171   3.6186

          k =-0.5000 1.8527 0.0000 ( 85566 PWs)   bands (ev):

  -103.3834-103.3824-103.3800-103.3701-102.9701-102.9667 -68.7003 -68.6982
   -68.6979 -68.6969 -63.9621 -63.9618 -63.9610 -63.9505 -63.7851 -63.7807
   -63.7680 -63.7609 -63.6541 -63.6514 -63.6442 -63.6361 -63.4581 -63.4560
   -63.4244 -63.4209 -63.2746 -63.2699 -35.1941 -35.1928 -35.1925 -35.1916
   -35.1913 -35.1909 -35.1898 -35.1893 -35.1186 -35.1175 -35.1133 -35.1127
   -11.7768 -11.7733 -11.5596 -11.5570 -11.4139 -11.4126 -11.2645 -11.2618
   -11.1182 -11.1169  -6.1062  -6.1060  -5.8397  -5.8367  -5.2993  -5.2964
    -5.0498  -5.0452  -4.7436  -4.7387  -4.3595  -4.3564  -4.1582  -4.1549
    -3.8835  -3.8828  -3.7317  -3.7291  -3.5520  -3.5498  -3.4403  -3.4391
    -3.3298  -3.3286  -3.1932  -3.1916  -3.0173  -3.0134  -2.8489  -2.8452
    -2.7155  -2.7125  -2.4747  -2.4737  -2.3475  -2.3449  -2.1798  -2.1777
    -2.1263  -2.1248  -2.0298  -2.0258  -1.8027  -1.7983  -1.7069  -1.6975
    -1.5147  -1.5128  -1.4550  -1.4529  -1.2633  -1.2613  -1.1400  -1.1370
    -1.0230  -1.0210  -0.8744  -0.8712  -0.6756  -0.6728   0.3367   0.3373
     1.0214   1.0228   1.2768   1.2773   1.4109   1.4116   1.7399   1.7411
     1.8285   1.8300   2.0609   2.0632   2.3144   2.3160   2.8511   2.8535
     2.9903   2.9916   3.3059   3.3067

          k =-0.5000-2.3158 0.0000 ( 85612 PWs)   bands (ev):

  -103.3821-103.3820-103.3814-103.3703-102.9701-102.9667 -68.7002 -68.6981
   -68.6978 -68.6968 -63.9620 -63.9618 -63.9612 -63.9505 -63.7772 -63.7771
   -63.7763 -63.7664 -63.6491 -63.6490 -63.6483 -63.6375 -63.4581 -63.4560
   -63.4245 -63.4209 -63.2747 -63.2700 -35.1993 -35.1979 -35.1968 -35.1961
   -35.1923 -35.1910 -35.1895 -35.1890 -35.1178 -35.1168 -35.1126 -35.1125
   -11.6141 -11.6083 -11.3840 -11.3838 -11.3691 -11.3676 -11.2710 -11.2693
   -11.0804 -11.0785  -6.3219  -6.3215  -6.0438  -6.0405  -5.4483  -5.4453
    -5.0324  -5.0317  -4.8833  -4.8784  -4.1479  -4.1442  -4.1094  -4.1079
    -3.7681  -3.7671  -3.6360  -3.6343  -3.5602  -3.5595  -3.4294  -3.4283
    -3.4160  -3.4158  -3.2866  -3.2846  -2.9202  -2.9171  -2.8657  -2.8635
    -2.7298  -2.7280  -2.4788  -2.4780  -2.3290  -2.3284  -2.2329  -2.2311
    -2.2092  -2.2078  -1.9265  -1.9257  -1.8874  -1.8853  -1.7773  -1.7672
    -1.5655  -1.5649  -1.3876  -1.3854  -1.3347  -1.3328  -1.1948  -1.1907
    -1.1888  -1.1842  -0.9202  -0.9202  -0.6955  -0.6929   0.3061   0.3061
     1.0524   1.0542   1.2312   1.2315   1.3410   1.3419   1.8042   1.8066
     2.1027   2.1046   2.1909   2.1940   2.2025   2.2032   2.7722   2.7742
     2.9022   2.9027   3.5465   3.5646

     the Fermi energy is    -0.0198 ev

!    total energy              =   -9109.87571824 Ry
     total all-electron energy =     -9109.875718 Ry
     estimated scf accuracy    <          5.7E-11 Ry
     smearing contrib. (-TS)   =      -0.00000002 Ry
     internal energy E=F+TS    =   -9109.87571821 Ry

     The total energy is F=E-TS. E is the sum of the following terms:
     one-electron contribution =  -16416.12014729 Ry
     hartree contribution      =    8066.61560025 Ry
     xc contribution           =    -364.97889921 Ry
     ewald contribution        =    5872.32549970 Ry
     one-center paw contrib.   =   -6267.71777166 Ry

     convergence has been achieved in  18 iterations

     negative rho (up, down):  6.552E-02 0.000E+00

     Forces acting on atoms (cartesian axes, Ry/au):

     atom    1 type  1   force =    -0.00093419   -0.00000969    0.00032268
     atom    2 type  1   force =     0.00002076   -0.00001229   -0.00010568
     atom    3 type  1   force =    -0.00009432    0.00001933   -0.00005672
     atom    4 type  1   force =     0.00052432    0.00000727   -0.00045078
     atom    5 type  2   force =    -0.00011090   -0.00016727   -0.00012948
     atom    6 type  2   force =    -0.00005916    0.00017736   -0.00013175
     atom    7 type  2   force =    -0.00019350   -0.00015764   -0.00019259
     atom    8 type  2   force =    -0.00001437    0.00020399   -0.00029069
     atom    9 type  2   force =    -0.00014003   -0.00017645   -0.00008808
     atom   10 type  2   force =     0.00007373    0.00017868    0.00083380
     atom   11 type  3   force =     0.00024991    0.00011523    0.00041875
     atom   12 type  3   force =     0.00002076   -0.00011992   -0.00003571
     atom   13 type  3   force =     0.00004525    0.00003478   -0.00027890
     atom   14 type  3   force =     0.00044515   -0.00003927    0.00064096
     atom   15 type  3   force =    -0.00042056    0.00010136    0.00003478
     atom   16 type  3   force =     0.00041368   -0.00013553   -0.00023648
     atom   17 type  3   force =    -0.00005095    0.00004194   -0.00036086
     atom   18 type  3   force =    -0.00081515   -0.00002890    0.00052278
     atom   19 type  3   force =     0.00083764   -0.00013803   -0.00046679
     atom   20 type  3   force =     0.00020195    0.00010504    0.00005075

     Total force =     0.002463     Total SCF correction =     0.000042


     Computing stress (Cartesian axis) and pressure


     negative rho (up, down):  6.552E-02 0.000E+00
          total   stress  (Ry/bohr**3)                   (kbar)     P=       -0.95
   0.00004673   0.00000000  -0.00000006            6.87        0.00       -0.01
   0.00000000  -0.00002784  -0.00000004            0.00       -4.10       -0.01
  -0.00000006  -0.00000004  -0.00003825           -0.01       -0.01       -5.63

     Energy error            =      1.6E-05 Ry
     Gradient error          =      9.3E-04 Ry/Bohr

     bfgs converged in  18 scf cycles and  17 bfgs steps
     (criteria: energy <  1.0E-04 Ry, force <  1.0E-03 Ry/Bohr)

     End of BFGS Geometry Optimization

     Final energy             =   -9109.8757182365 Ry

     File /ddn/data/physics/eamoujaes/2D-Ta2Ni3Te5/ELASTIC/C12/OUT/ta2ni3te5.bfgs deleted, as requested
Begin final coordinates

ATOMIC_POSITIONS (angstrom)
Ta           15.2535130717        0.8963574422       12.4848781859
Ta            6.6063480226        2.7632933574       12.5498750321
Ta            2.3705498061        0.8963990889       12.4755819746
Ta           11.0147085814        2.7631421745       12.5606451774
Ni           12.7780594598        0.8967656012       11.7754216029
Ni            4.1323546595        2.7627939903       13.2651837837
Ni            4.8457045481        0.8969092879       11.7613826963
Ni           13.4896848903        2.7626062460       13.2801552726
Ni            8.8106119331        0.8982293916       12.3910189307
Ni            0.1655158680        2.7618781788       12.6380870934
Te           14.0911792737        2.7627015032       10.5697305248
Te            5.4488699709        0.8969073005       14.4674421336
Te           10.5401107153        0.8964134578       10.5103672199
Te            1.8909900386        2.7631340365       14.5232783337
Te            3.5292310105        2.7628609600       10.5584721946
Te           12.1679727639        0.8968089569       14.4801572157
Te            7.0879421181        0.8965249271       10.5023048986
Te           15.7370824570        2.7630132046       14.5311499268
Te            0.1617155128        0.8964413137       10.8262701310
Te            8.8064176618        2.7637520350       14.2068486717
End final coordinates



     Writing all to output data dir /ddn/data/physics/eamoujaes/2D-Ta2Ni3Te5/ELASTIC/C12/OUT/ta2ni3te5.save/
 
     init_run     :     81.46s CPU     36.71s WALL (       1 calls)
     electrons    :  16851.20s CPU   6294.17s WALL (      18 calls)
     update_pot   :    941.58s CPU    321.92s WALL (      17 calls)
     forces       :    862.19s CPU    294.13s WALL (      18 calls)
     stress       :   2083.58s CPU    708.56s WALL (      18 calls)

     Called by init_run:
     wfcinit      :     24.05s CPU      8.62s WALL (       1 calls)
     potinit      :     18.45s CPU      6.31s WALL (       1 calls)
     hinit0       :     35.20s CPU     19.38s WALL (       1 calls)

     Called by electrons:
     c_bands      :  12106.94s CPU   4322.20s WALL (     374 calls)
     sum_band     :   2789.85s CPU   1011.07s WALL (     374 calls)
     v_of_rho     :    885.18s CPU    338.62s WALL (     385 calls)
     newd         :    525.90s CPU    225.05s WALL (     385 calls)
     PAW_pot      :    253.02s CPU     93.11s WALL (     402 calls)
     mix_rho      :    206.69s CPU     79.25s WALL (     374 calls)

     Called by c_bands:
     init_us_2    :    121.95s CPU     41.19s WALL (    1604 calls)
     init_us_2:cp :    121.89s CPU     41.18s WALL (    1604 calls)
     cegterg      :  11319.34s CPU   3890.18s WALL (     748 calls)

     Called by *egterg:
     cdiaghg      :    146.97s CPU     50.73s WALL (    2531 calls)
     h_psi        :   7425.37s CPU   2555.37s WALL (    2581 calls)
     s_psi        :    722.91s CPU    241.19s WALL (    2581 calls)
     g_psi        :     33.07s CPU     11.06s WALL (    1831 calls)

     Called by h_psi:
     h_psi:calbec :    749.06s CPU    250.52s WALL (    2581 calls)
     vloc_psi     :   5898.67s CPU   2034.72s WALL (    2581 calls)
     add_vuspsi   :    724.56s CPU    241.82s WALL (    2581 calls)

     General routines
     calbec       :   1167.01s CPU    391.17s WALL (    3543 calls)
     fft          :    639.81s CPU    241.35s WALL (    5443 calls)
     ffts         :     19.42s CPU      7.00s WALL (     759 calls)
     fftw         :   5458.58s CPU   1904.06s WALL (  542944 calls)
     interpolate  :     72.76s CPU     28.65s WALL (     385 calls)
 
     Parallel routines
 
     PWSCF        :      5h48m CPU      2h 8m WALL

 
   This run was terminated on:  16:55: 7  31Jul2024            

=------------------------------------------------------------------------------=
   JOB DONE.
=------------------------------------------------------------------------------=
