
     Program PWSCF v.7.1 starts on 31Jul2024 at 17: 4: 0 

     This program is part of the open-source Quantum ESPRESSO suite
     for quantum simulation of materials; please cite
         "P. Giannozzi et al., J. Phys.:Condens. Matter 21 395502 (2009);
         "P. Giannozzi et al., J. Phys.:Condens. Matter 29 465901 (2017);
         "P. Giannozzi et al., J. Chem. Phys. 152 154105 (2020);
          URL http://www.quantum-espresso.org", 
     in publications or presentations arising from this work. More details at
     http://www.quantum-espresso.org/quote

     Parallel version (MPI & OpenMP), running on      72 processor cores
     Number of MPI processes:                24
     Threads/MPI process:                     3

     MPI processes distributed on     3 nodes
     28469 MiB available memory on the printing compute node when the environment starts
 
     Waiting for input...
     Reading input from standard input
Warning: card &CELL ignored
Warning: card CELL_DYNAMICS='BFGS' ignored
Warning: card PRESS=0.0 ignored
Warning: card CELL_DOFREE='2DXY' ignored
Warning: card / ignored

     Current dimensions of program PWSCF are:
     Max number of different atomic species (ntypx) = 10
     Max number of k-points (npk) =  40000
     Max angular momentum in pseudopotentials (lmaxx) =  4
     Message from routine read_pp_mesh:
     mismatch in mesh size, discarding the one in header
     Message from routine read_pp_mesh:
     mismatch in mesh size, discarding the one in header
     Message from routine read_pp_mesh:
     mismatch in mesh size, discarding the one in header
 
     K-points division:     npool     =       8
     R & G space division:  proc/nbgrp/npool/nimage =       3
     Subspace diagonalization in iterative solution of the eigenvalue problem:
     a serial algorithm will be used

 
     Parallelization info
     --------------------
     sticks:   dense  smooth     PW     G-vecs:    dense   smooth      PW
     Min        2935    1467    409               645695   228334   34047
     Max        2936    1468    410               645698   228337   34050
     Sum        8807    4403   1229              1937091   685007  102147
 
     Using Slab Decomposition
 


     bravais-lattice index     =            0
     lattice parameter (alat)  =      34.0075  a.u.
     unit-cell volume          =   10905.9114 (a.u.)^3
     number of atoms/cell      =           20
     number of atomic types    =            3
     number of electrons       =       220.00
     number of Kohn-Sham states=          132
     kinetic-energy cutoff     =      60.0000  Ry
     charge density cutoff     =     480.0000  Ry
     scf convergence threshold =      1.0E-08
     mixing beta               =       0.2000
     number of iterations used =            8  plain     mixing
     energy convergence thresh.=      1.0E-04
     force convergence thresh. =      1.0E-03
     Exchange-correlation= SLA PW PBX PBC
                           (   1   4   3   4   0   0   0)
     nstep                     =         2000


     celldm(1)=  34.007511  celldm(2)=   0.000000  celldm(3)=   0.000000
     celldm(4)=   0.000000  celldm(5)=   0.000000  celldm(6)=   0.000000

     crystal axes: (cart. coord. in units of alat)
               a(1) = (   1.000000   0.000000   0.000000 )  
               a(2) = (   0.000000   0.199322   0.000000 )  
               a(3) = (   0.000000   0.000000   1.391176 )  

     reciprocal axes: (cart. coord. in units 2 pi/alat)
               b(1) = (  1.000000  0.000000  0.000000 )  
               b(2) = (  0.000000  5.017006  0.000000 )  
               b(3) = (  0.000000  0.000000  0.718816 )  


     PseudoPot. # 1 for Ta read from file:
     /ddn/data/physics/eamoujaes/PSEUDO-CREATED/Ta.upf
     MD5 check sum: d865b2c2c09566b116f2b8decb2c153d
     Pseudo is Projector augmented-wave + core cor, Zval = 13.0
     Generated using ATOMPAW code
     Shape of augmentation charge: SINC**2
     Using radial grid of 2342 points,  6 beta functions with: 
                l(1) =   0
                l(2) =   0
                l(3) =   1
                l(4) =   1
                l(5) =   2
                l(6) =   2
     Q(r) pseudized with 0 coefficients 


     PseudoPot. # 2 for Ni read from file:
     /ddn/data/physics/eamoujaes/PSEUDO-CREATED/Ni.upf
     MD5 check sum: 85a2a5d9d38f4289a1cc30d5adb66a03
     Pseudo is Projector augmented-wave + core cor, Zval = 18.0
     Generated using ATOMPAW code
     Shape of augmentation charge: SINC**2
     Using radial grid of 2342 points,  6 beta functions with: 
                l(1) =   0
                l(2) =   0
                l(3) =   1
                l(4) =   1
                l(5) =   2
                l(6) =   2
     Q(r) pseudized with 0 coefficients 


     PseudoPot. # 3 for Te read from file:
     /ddn/data/physics/eamoujaes/PSEUDO-CREATED/Te.upf
     MD5 check sum: 8d958f193a7511a138982c2e72838810
     Pseudo is Projector augmented-wave + core cor, Zval =  6.0
     Generated using ATOMPAW code
     Shape of augmentation charge: SINC**2
     Using radial grid of 2342 points,  4 beta functions with: 
                l(1) =   0
                l(2) =   0
                l(3) =   1
                l(4) =   1
     Q(r) pseudized with 0 coefficients 


     atomic species   valence    mass     pseudopotential
        Ta            13.00   180.94790     Ta( 1.00)
        Ni            18.00    58.69340     Ni( 1.00)
        Te             6.00   127.60000     Te( 1.00)

     No symmetry found



   Cartesian axes

     site n.     atom                  positions (alat units)
         1           Ta  tau(   1) = (   0.8552923   0.0508404   0.6914781  )
         2           Ta  tau(   2) = (   0.3651673   0.1525211   0.6997108  )
         3           Ta  tau(   3) = (   0.1258699   0.0508404   0.6914684  )
         4           Ta  tau(   4) = (   0.6159954   0.1525211   0.6997197  )
         5           Ni  tau(   5) = (   0.7148482   0.0508404   0.6535724  )
         6           Ni  tau(   6) = (   0.2247222   0.1525211   0.7376164  )
         7           Ni  tau(   7) = (   0.2663073   0.0508404   0.6535576  )
         8           Ni  tau(   8) = (   0.7564326   0.1525211   0.7376306  )
         9           Ni  tau(   9) = (   0.4905727   0.0508404   0.6872753  )
        10           Ni  tau(  10) = (   0.0004488   0.1525211   0.7039125  )
        11           Te  tau(  11) = (   0.7897890   0.1525211   0.5854221  )
        12           Te  tau(  12) = (   0.2996623   0.0508404   0.8057664  )
        13           Te  tau(  13) = (   0.5887660   0.0508404   0.5845373  )
        14           Te  tau(  14) = (   0.0986414   0.1525211   0.8066512  )
        15           Te  tau(  15) = (   0.1913586   0.1525211   0.5854097  )
        16           Te  tau(  16) = (   0.6814842   0.0508404   0.8057786  )
        17           Te  tau(  17) = (   0.3923993   0.0508404   0.5845283  )
        18           Te  tau(  18) = (   0.8825240   0.1525211   0.8066608  )
        19           Te  tau(  19) = (   0.0004612   0.0508404   0.6022238  )
        20           Te  tau(  20) = (   0.4905845   0.1525211   0.7889630  )

     number of k points=    12  Gaussian smearing, width (Ry)=  0.0020
                       cart. coord. in units 2pi/alat
        k(    1) = (   0.0000000   0.0000000   0.0000000), wk =   0.1000000
        k(    2) = (   0.0000000   0.5017006   0.0000000), wk =   0.2000000
        k(    3) = (   0.0000000   1.0034012   0.0000000), wk =   0.2000000
        k(    4) = (   0.0000000   1.5051018   0.0000000), wk =   0.2000000
        k(    5) = (   0.0000000   2.0068023   0.0000000), wk =   0.2000000
        k(    6) = (   0.0000000  -2.5085029   0.0000000), wk =   0.1000000
        k(    7) = (  -0.5000000   0.0000000   0.0000000), wk =   0.1000000
        k(    8) = (  -0.5000000   0.5017006   0.0000000), wk =   0.2000000
        k(    9) = (  -0.5000000   1.0034012   0.0000000), wk =   0.2000000
        k(   10) = (  -0.5000000   1.5051018   0.0000000), wk =   0.2000000
        k(   11) = (  -0.5000000   2.0068023   0.0000000), wk =   0.2000000
        k(   12) = (  -0.5000000  -2.5085029   0.0000000), wk =   0.1000000

     Dense  grid:  1937091 G-vectors     FFT dimensions: ( 240,  48, 360)

     Smooth grid:   685007 G-vectors     FFT dimensions: ( 180,  36, 240)

     Estimated max dynamical RAM per process >       1.01 GB

     Estimated total dynamical RAM >      21.12 GB

     Initial potential from superposition of free atoms

     starting charge     219.9927, renormalised to     220.0000

     negative rho (up, down):  5.129E-02 0.000E+00
     Starting wfcs are  260 randomized atomic wfcs
     Checking if some PAW data can be deallocated... 

     total cpu time spent up to now is       51.6 secs

     Self-consistent Calculation

     iteration #  1     ecut=    60.00 Ry     beta= 0.20
     Davidson diagonalization with overlap
     ethr =  1.00E-02,  avg # of iterations =  2.9

     negative rho (up, down):  5.179E-02 0.000E+00

     total cpu time spent up to now is       78.1 secs

     total energy              =   -9107.95169619 Ry
     estimated scf accuracy    <       7.70846811 Ry

     iteration #  2     ecut=    60.00 Ry     beta= 0.20
     Davidson diagonalization with overlap
     ethr =  3.50E-03,  avg # of iterations =  2.7

     negative rho (up, down):  5.303E-02 0.000E+00

     total cpu time spent up to now is      106.2 secs

     total energy              =   -9107.88429365 Ry
     estimated scf accuracy    <      16.91496972 Ry

     iteration #  3     ecut=    60.00 Ry     beta= 0.20
     Davidson diagonalization with overlap
     ethr =  3.50E-03,  avg # of iterations =  1.7

     negative rho (up, down):  5.370E-02 0.000E+00

     total cpu time spent up to now is      122.0 secs

     total energy              =   -9109.43939982 Ry
     estimated scf accuracy    <      10.47077925 Ry

     iteration #  4     ecut=    60.00 Ry     beta= 0.20
     Davidson diagonalization with overlap
     ethr =  3.50E-03,  avg # of iterations =  1.0

     negative rho (up, down):  5.459E-02 0.000E+00

     total cpu time spent up to now is      136.9 secs

     total energy              =   -9109.90796681 Ry
     estimated scf accuracy    <       1.68802191 Ry

     iteration #  5     ecut=    60.00 Ry     beta= 0.20
     Davidson diagonalization with overlap
     ethr =  7.67E-04,  avg # of iterations =  1.0

     negative rho (up, down):  5.558E-02 0.000E+00

     total cpu time spent up to now is      151.8 secs

     total energy              =   -9109.90004969 Ry
     estimated scf accuracy    <       0.84178885 Ry

     iteration #  6     ecut=    60.00 Ry     beta= 0.20
     Davidson diagonalization with overlap
     ethr =  3.83E-04,  avg # of iterations =  1.2

     negative rho (up, down):  5.956E-02 0.000E+00

     total cpu time spent up to now is      167.3 secs

     total energy              =   -9109.78182499 Ry
     estimated scf accuracy    <       0.53873201 Ry

     iteration #  7     ecut=    60.00 Ry     beta= 0.20
     Davidson diagonalization with overlap
     ethr =  2.45E-04,  avg # of iterations =  4.6

     negative rho (up, down):  6.117E-02 0.000E+00

     total cpu time spent up to now is      184.1 secs

     total energy              =   -9109.84565647 Ry
     estimated scf accuracy    <       0.39893636 Ry

     iteration #  8     ecut=    60.00 Ry     beta= 0.20
     Davidson diagonalization with overlap
     ethr =  1.81E-04,  avg # of iterations =  1.4

     negative rho (up, down):  6.243E-02 0.000E+00

     total cpu time spent up to now is      203.1 secs

     total energy              =   -9109.84229904 Ry
     estimated scf accuracy    <       0.28392267 Ry

     iteration #  9     ecut=    60.00 Ry     beta= 0.20
     Davidson diagonalization with overlap
     ethr =  1.29E-04,  avg # of iterations =  1.1

     negative rho (up, down):  6.266E-02 0.000E+00

     total cpu time spent up to now is      218.5 secs

     total energy              =   -9109.83209792 Ry
     estimated scf accuracy    <       0.10510646 Ry

     iteration # 10     ecut=    60.00 Ry     beta= 0.20
     Davidson diagonalization with overlap
     ethr =  4.78E-05,  avg # of iterations =  7.5

     negative rho (up, down):  6.347E-02 0.000E+00

     total cpu time spent up to now is      236.3 secs

     total energy              =   -9109.84248571 Ry
     estimated scf accuracy    <       0.02449368 Ry

     iteration # 11     ecut=    60.00 Ry     beta= 0.20
     Davidson diagonalization with overlap
     ethr =  1.11E-05,  avg # of iterations =  9.6

     negative rho (up, down):  6.418E-02 0.000E+00

     total cpu time spent up to now is      256.1 secs

     total energy              =   -9109.84171619 Ry
     estimated scf accuracy    <       0.01642378 Ry

     iteration # 12     ecut=    60.00 Ry     beta= 0.20
     Davidson diagonalization with overlap
     c_bands:  3 eigenvalues not converged
     ethr =  7.47E-06,  avg # of iterations =  4.8

     negative rho (up, down):  6.517E-02 0.000E+00

     total cpu time spent up to now is      274.1 secs

     total energy              =   -9109.84291199 Ry
     estimated scf accuracy    <       0.00186544 Ry

     iteration # 13     ecut=    60.00 Ry     beta= 0.20
     Davidson diagonalization with overlap
     c_bands:  2 eigenvalues not converged
     ethr =  8.48E-07,  avg # of iterations = 11.5

     negative rho (up, down):  6.546E-02 0.000E+00

     total cpu time spent up to now is      294.0 secs

     total energy              =   -9109.84302915 Ry
     estimated scf accuracy    <       0.00127053 Ry

     iteration # 14     ecut=    60.00 Ry     beta= 0.20
     Davidson diagonalization with overlap
     ethr =  5.78E-07,  avg # of iterations =  2.8

     negative rho (up, down):  6.560E-02 0.000E+00

     total cpu time spent up to now is      310.7 secs

     total energy              =   -9109.84310242 Ry
     estimated scf accuracy    <       0.00012236 Ry

     iteration # 15     ecut=    60.00 Ry     beta= 0.20
     Davidson diagonalization with overlap
     ethr =  5.56E-08,  avg # of iterations =  2.2

     negative rho (up, down):  6.569E-02 0.000E+00

     total cpu time spent up to now is      328.3 secs

     total energy              =   -9109.84311373 Ry
     estimated scf accuracy    <       0.00007380 Ry

     iteration # 16     ecut=    60.00 Ry     beta= 0.20
     Davidson diagonalization with overlap
     ethr =  3.35E-08,  avg # of iterations =  1.9

     negative rho (up, down):  6.570E-02 0.000E+00

     total cpu time spent up to now is      344.2 secs

     total energy              =   -9109.84311668 Ry
     estimated scf accuracy    <       0.00006136 Ry

     iteration # 17     ecut=    60.00 Ry     beta= 0.20
     Davidson diagonalization with overlap
     ethr =  2.79E-08,  avg # of iterations =  1.0

     negative rho (up, down):  6.572E-02 0.000E+00

     total cpu time spent up to now is      359.1 secs

     total energy              =   -9109.84311911 Ry
     estimated scf accuracy    <       0.00003830 Ry

     iteration # 18     ecut=    60.00 Ry     beta= 0.20
     Davidson diagonalization with overlap
     ethr =  1.74E-08,  avg # of iterations =  1.0

     negative rho (up, down):  6.571E-02 0.000E+00

     total cpu time spent up to now is      373.9 secs

     total energy              =   -9109.84312167 Ry
     estimated scf accuracy    <       0.00002127 Ry

     iteration # 19     ecut=    60.00 Ry     beta= 0.20
     Davidson diagonalization with overlap
     ethr =  9.67E-09,  avg # of iterations =  1.0

     negative rho (up, down):  6.569E-02 0.000E+00

     total cpu time spent up to now is      388.8 secs

     total energy              =   -9109.84312278 Ry
     estimated scf accuracy    <       0.00000426 Ry

     iteration # 20     ecut=    60.00 Ry     beta= 0.20
     Davidson diagonalization with overlap
     ethr =  1.94E-09,  avg # of iterations =  2.0

     negative rho (up, down):  6.567E-02 0.000E+00

     total cpu time spent up to now is      405.0 secs

     total energy              =   -9109.84312302 Ry
     estimated scf accuracy    <       0.00000295 Ry

     iteration # 21     ecut=    60.00 Ry     beta= 0.20
     Davidson diagonalization with overlap
     ethr =  1.34E-09,  avg # of iterations =  1.0

     negative rho (up, down):  6.563E-02 0.000E+00

     total cpu time spent up to now is      419.9 secs

     total energy              =   -9109.84312322 Ry
     estimated scf accuracy    <       0.00000124 Ry

     iteration # 22     ecut=    60.00 Ry     beta= 0.20
     Davidson diagonalization with overlap
     ethr =  5.64E-10,  avg # of iterations =  1.9

     negative rho (up, down):  6.559E-02 0.000E+00

     total cpu time spent up to now is      435.9 secs

     total energy              =   -9109.84312334 Ry
     estimated scf accuracy    <       0.00000043 Ry

     iteration # 23     ecut=    60.00 Ry     beta= 0.20
     Davidson diagonalization with overlap
     ethr =  1.97E-10,  avg # of iterations =  2.0

     negative rho (up, down):  6.558E-02 0.000E+00

     total cpu time spent up to now is      453.3 secs

     total energy              =   -9109.84312340 Ry
     estimated scf accuracy    <       0.00000019 Ry

     iteration # 24     ecut=    60.00 Ry     beta= 0.20
     Davidson diagonalization with overlap
     ethr =  8.45E-11,  avg # of iterations =  2.0

     negative rho (up, down):  6.557E-02 0.000E+00

     total cpu time spent up to now is      480.3 secs

     total energy              =   -9109.84312341 Ry
     estimated scf accuracy    <       0.00000055 Ry

     iteration # 25     ecut=    60.00 Ry     beta= 0.20
     Davidson diagonalization with overlap
     ethr =  8.45E-11,  avg # of iterations =  1.0

     negative rho (up, down):  6.556E-02 0.000E+00

     total cpu time spent up to now is      495.3 secs

     total energy              =   -9109.84312344 Ry
     estimated scf accuracy    <       0.00000005 Ry

     iteration # 26     ecut=    60.00 Ry     beta= 0.20
     Davidson diagonalization with overlap
     ethr =  2.43E-11,  avg # of iterations =  2.0

     negative rho (up, down):  6.554E-02 0.000E+00

     total cpu time spent up to now is      511.5 secs

     total energy              =   -9109.84312345 Ry
     estimated scf accuracy    <       0.00000003 Ry

     iteration # 27     ecut=    60.00 Ry     beta= 0.20
     Davidson diagonalization with overlap
     ethr =  1.18E-11,  avg # of iterations =  2.0

     negative rho (up, down):  6.553E-02 0.000E+00

     total cpu time spent up to now is      528.1 secs

     total energy              =   -9109.84312345 Ry
     estimated scf accuracy    <       0.00000001 Ry

     iteration # 28     ecut=    60.00 Ry     beta= 0.20
     Davidson diagonalization with overlap
     ethr =  5.32E-12,  avg # of iterations =  2.0

     negative rho (up, down):  6.552E-02 0.000E+00

     total cpu time spent up to now is      544.0 secs

     End of self-consistent calculation

          k = 0.0000 0.0000 0.0000 ( 85695 PWs)   bands (ev):

  -103.5078-103.4642-103.3690-103.3527-103.0093-102.8265 -68.8243 -68.5994
   -68.5612 -68.5547 -64.0694 -64.0301 -63.9367 -63.9286 -63.9246 -63.8458
   -63.7965 -63.7810 -63.7371 -63.7158 -63.6719 -63.6219 -63.5094 -63.4853
   -63.3288 -63.2813 -63.2629 -63.1418 -35.3163 -35.2407 -35.2192 -35.1007
   -35.0770 -35.0635 -35.0621 -35.0245 -35.0244 -35.0175 -34.9941 -34.9837
   -13.0460 -12.8232 -12.5631 -12.2428 -12.1643 -11.9095 -11.8828 -11.8457
   -11.7149 -11.5702  -6.2615  -6.0601  -5.8188  -5.7230  -5.5463  -5.4751
    -5.3631  -4.8013  -4.7344  -4.2951  -4.2362  -3.9482  -3.8849  -3.8195
    -3.7666  -3.7316  -3.6509  -3.5491  -3.3130  -3.2681  -3.2121  -3.0674
    -2.7934  -2.7154  -2.6815  -2.6509  -2.6323  -2.3974  -2.3801  -2.3158
    -2.2932  -2.2395  -2.0893  -2.0091  -1.9644  -1.9274  -1.8916  -1.8559
    -1.7661  -1.7153  -1.6738  -1.5386  -1.4146  -1.3179  -1.2782  -1.2262
    -1.1504  -1.1282  -1.0041  -0.9780  -0.9078  -0.8908  -0.8462  -0.6453
    -0.6260  -0.5925  -0.5183  -0.4186  -0.0546  -0.0163   0.0697   0.3281
     0.7185   0.9522   1.1207   1.2447   1.2763   1.3057   1.4298   1.4905
     1.7297   1.9575   1.9907   2.3293   2.4994   2.5070   3.0997   3.2246
     3.4252   3.4901   3.5182   3.5427

          k = 0.0000 0.5017 0.0000 ( 85647 PWs)   bands (ev):

  -103.5077-103.4643-103.3687-103.3529-103.0093-102.8264 -68.8241 -68.5991
   -68.5610 -68.5545 -64.0694 -64.0301 -63.9365 -63.9288 -63.9239 -63.8491
   -63.7936 -63.7802 -63.7374 -63.7196 -63.6685 -63.6223 -63.5093 -63.4852
   -63.3288 -63.2813 -63.2628 -63.1419 -35.3155 -35.2399 -35.2274 -35.0996
   -35.0760 -35.0625 -35.0610 -35.0333 -35.0234 -35.0166 -35.0028 -34.9925
   -12.9447 -12.7242 -12.4719 -12.1721 -12.1033 -11.8468 -11.8224 -11.7900
   -11.6512 -11.5273  -6.1691  -5.9701  -5.7142  -5.6158  -5.4606  -5.3654
    -5.2746  -4.7185  -4.6662  -4.2728  -4.2063  -4.0310  -3.9456  -3.9201
    -3.8605  -3.7899  -3.6740  -3.5342  -3.3222  -3.2706  -3.2540  -2.9712
    -2.9356  -2.8737  -2.8121  -2.7744  -2.7049  -2.6747  -2.4953  -2.3443
    -2.2872  -2.2370  -2.1830  -2.1153  -1.9824  -1.9691  -1.9399  -1.8869
    -1.8581  -1.7365  -1.6453  -1.5958  -1.5786  -1.4899  -1.4097  -1.3655
    -1.3061  -1.2513  -1.1590  -1.0503  -0.9916  -0.9231  -0.8978  -0.7087
    -0.6849  -0.6177  -0.5324  -0.4444  -0.0871   0.0363   0.1073   0.3763
     0.6928   0.8408   0.9909   1.1360   1.2218   1.2752   1.3650   1.5268
     1.6659   1.8514   2.0162   2.1406   2.2373   2.5163   2.7510   2.9312
     2.9870   3.1139   3.3650   3.4547

          k = 0.0000 1.0034 0.0000 ( 85619 PWs)   bands (ev):

  -103.5074-103.4645-103.3680-103.3536-103.0093-102.8264 -68.8235 -68.5986
   -68.5604 -68.5540 -64.0695 -64.0304 -63.9363 -63.9293 -63.9219 -63.8566
   -63.7870 -63.7778 -63.7384 -63.7283 -63.6610 -63.6237 -63.5094 -63.4852
   -63.3288 -63.2815 -63.2629 -63.1420 -35.3133 -35.2513 -35.2353 -35.0968
   -35.0737 -35.0598 -35.0583 -35.0559 -35.0259 -35.0206 -35.0156 -35.0137
   -12.6542 -12.4416 -12.2140 -11.9946 -11.9220 -11.6965 -11.6489 -11.6152
   -11.4762 -11.4111  -5.9372  -5.7366  -5.4476  -5.3814  -5.2265  -5.0886
    -5.0332  -4.6940  -4.5457  -4.3811  -4.2498  -4.1964  -4.1106  -4.0726
    -4.0429  -3.9616  -3.7849  -3.6319  -3.5791  -3.4206  -3.3571  -3.3032
    -3.2179  -3.1128  -3.0488  -2.9055  -2.8181  -2.8061  -2.7076  -2.5658
    -2.5009  -2.4531  -2.3999  -2.3749  -2.2364  -2.1872  -2.1200  -2.0728
    -2.0163  -1.8871  -1.8129  -1.7074  -1.6909  -1.6132  -1.5318  -1.5047
    -1.4203  -1.3833  -1.2827  -1.1538  -1.0548  -0.9938  -0.9532  -0.9212
    -0.8752  -0.8002  -0.6042  -0.4770  -0.3300  -0.2483   0.4305   0.6845
     0.7110   0.9136   0.9396   1.0451   1.0995   1.1867   1.2552   1.4347
     1.6934   1.7292   1.8151   2.0488   2.2473   2.2800   2.4687   2.5571
     2.6901   2.8447   3.7572   3.8284

          k = 0.0000 1.5051 0.0000 ( 85545 PWs)   bands (ev):

  -103.5071-103.4648-103.3670-103.3546-103.0093-102.8264 -68.8228 -68.5979
   -68.5597 -68.5533 -64.0696 -64.0307 -63.9360 -63.9298 -63.9189 -63.8652
   -63.7800 -63.7736 -63.7400 -63.7384 -63.6528 -63.6261 -63.5093 -63.4852
   -63.3288 -63.2817 -63.2628 -63.1422 -35.3107 -35.2784 -35.2319 -35.0941
   -35.0844 -35.0694 -35.0579 -35.0571 -35.0508 -35.0431 -35.0172 -35.0109
   -12.2198 -12.0263 -11.8452 -11.7713 -11.6666 -11.5304 -11.3831 -11.3615
   -11.2656 -11.2424  -5.7956  -5.5954  -5.4738  -5.3838  -5.1526  -5.0508
    -4.9247  -4.9052  -4.7151  -4.6183  -4.4561  -4.2809  -4.2414  -4.1766
    -4.1040  -4.0799  -3.8626  -3.8245  -3.7396  -3.6121  -3.5583  -3.5139
    -3.4914  -3.2025  -3.0988  -3.0706  -3.0217  -2.8784  -2.8289  -2.7737
    -2.7293  -2.6985  -2.5773  -2.4462  -2.4182  -2.2859  -2.2104  -2.1399
    -2.0930  -2.0564  -1.9756  -1.8395  -1.8265  -1.6904  -1.6117  -1.5833
    -1.4675  -1.4122  -1.3881  -1.3052  -1.1995  -1.1504  -1.1403  -1.1029
    -0.9063  -0.8561  -0.7725  -0.6110  -0.5721  -0.4512   0.5526   0.6742
     0.7816   0.8634   1.0162   1.1451   1.3324   1.3635   1.4209   1.4920
     1.7065   1.7862   1.8191   2.0965   2.1608   2.4708   2.5476   2.6876
     2.9437   2.9894   3.6148   3.7674

          k = 0.0000 2.0068 0.0000 ( 85462 PWs)   bands (ev):

  -103.5068-103.4651-103.3661-103.3555-103.0092-102.8264 -68.8223 -68.5973
   -68.5592 -68.5527 -64.0696 -64.0309 -63.9357 -63.9303 -63.9160 -63.8719
   -63.7745 -63.7684 -63.7478 -63.7415 -63.6455 -63.6293 -63.5093 -63.4852
   -63.3288 -63.2818 -63.2628 -63.1424 -35.3090 -35.3001 -35.2289 -35.1084
   -35.0897 -35.0776 -35.0677 -35.0670 -35.0526 -35.0510 -35.0144 -35.0083
   -11.7433 -11.6019 -11.5659 -11.4931 -11.4255 -11.3760 -11.2051 -11.1282
   -11.1091 -11.0696  -6.1234  -6.0907  -6.0147  -5.9852  -5.3528  -5.1747
    -5.0882  -5.0426  -4.8255  -4.7503  -4.4400  -4.3784  -4.2300  -3.9833
    -3.8876  -3.8620  -3.7398  -3.6900  -3.6647  -3.6309  -3.5543  -3.5160
    -3.3945  -3.3589  -3.2501  -3.2012  -3.1333  -2.9814  -2.8991  -2.8631
    -2.7347  -2.6937  -2.6088  -2.5011  -2.3595  -2.2853  -2.2573  -2.1987
    -2.1656  -2.1146  -2.0780  -1.9633  -1.9209  -1.8333  -1.7762  -1.7023
    -1.5236  -1.4476  -1.4057  -1.3837  -1.2909  -1.2768  -1.2124  -1.1961
    -1.0237  -0.9251  -0.8751  -0.8083  -0.7068  -0.6553   0.3832   0.4820
     0.9153   0.9649   1.0742   1.1754   1.2918   1.6211   1.7174   1.8812
     1.9318   1.9766   2.0726   2.1613   2.2500   2.4319   2.8088   2.8609
     3.0554   3.2464   3.3678   3.4185

          k = 0.0000-2.5085 0.0000 ( 85508 PWs)   bands (ev):

  -103.5067-103.4652-103.3657-103.3559-103.0092-102.8264 -68.8221 -68.5971
   -68.5589 -68.5525 -64.0697 -64.0311 -63.9357 -63.9305 -63.9148 -63.8747
   -63.7724 -63.7648 -63.7531 -63.7422 -63.6419 -63.6315 -63.5094 -63.4852
   -63.3287 -63.2820 -63.2628 -63.1426 -35.3106 -35.3061 -35.2277 -35.1168
   -35.0888 -35.0861 -35.0759 -35.0661 -35.0519 -35.0500 -35.0134 -35.0073
   -11.5106 -11.4555 -11.3938 -11.3504 -11.3166 -11.2673 -11.2087 -11.0435
   -11.0352 -11.0273  -6.3679  -6.3414  -6.2789  -6.2565  -5.5696  -5.3845
    -5.1318  -5.0494  -4.9453  -4.9320  -4.1793  -4.1629  -4.0940  -4.0342
    -3.9112  -3.8639  -3.6077  -3.5941  -3.5731  -3.5344  -3.5245  -3.4672
    -3.3713  -3.3385  -3.2569  -3.2245  -3.0905  -3.0723  -3.0375  -2.9893
    -2.6644  -2.6423  -2.5261  -2.4791  -2.3503  -2.3011  -2.2846  -2.2293
    -2.1735  -2.1620  -2.0159  -1.9815  -1.9614  -1.9039  -1.8652  -1.8448
    -1.5496  -1.4478  -1.3918  -1.3710  -1.3535  -1.3038  -1.2212  -1.1988
    -1.0810  -1.0374  -0.9767  -0.9667  -0.7467  -0.6915   0.3627   0.3968
     0.9878   0.9959   1.1037   1.1454   1.3188   1.3965   1.7941   1.8342
     2.1284   2.2314   2.2438   2.2891   2.4554   2.5451   2.7603   2.7813
     3.0149   3.0613   3.2715   3.4022

          k =-0.5000 0.0000 0.0000 ( 85784 PWs)   bands (ev):

  -103.5078-103.4642-103.3690-103.3527-103.0093-102.8265 -68.8243 -68.5994
   -68.5612 -68.5547 -64.0696 -64.0302 -63.9368 -63.9288 -63.9246 -63.8459
   -63.7965 -63.7810 -63.7372 -63.7159 -63.6719 -63.6220 -63.5095 -63.4853
   -63.3289 -63.2813 -63.2630 -63.1418 -35.3163 -35.2407 -35.2192 -35.1007
   -35.0770 -35.0635 -35.0621 -35.0245 -35.0244 -35.0175 -34.9941 -34.9837
   -13.0116 -12.9083 -12.4190 -12.3207 -12.1515 -12.0573 -11.8555 -11.7410
   -11.6641 -11.6333  -6.2237  -6.1313  -5.8107  -5.8047  -5.5222  -5.4112
    -5.1369  -5.0028  -4.6880  -4.5979  -3.9891  -3.9478  -3.8538  -3.7790
    -3.7508  -3.6484  -3.6136  -3.5236  -3.4143  -3.3102  -3.2628  -3.2133
    -2.7967  -2.7149  -2.6992  -2.6694  -2.5655  -2.4576  -2.3846  -2.3214
    -2.1660  -2.1163  -2.0939  -2.0203  -1.9911  -1.9566  -1.8920  -1.8269
    -1.8011  -1.7522  -1.6853  -1.5573  -1.4162  -1.3220  -1.2650  -1.1396
    -1.1383  -1.0854  -1.0315  -1.0082  -0.9590  -0.8912  -0.7253  -0.6951
    -0.6585  -0.6040  -0.5325  -0.4092  -0.0365   0.0248   0.0613   0.2516
     0.9015   0.9777   1.0531   1.1875   1.2206   1.2967   1.3415   1.3857
     1.7569   1.9360   2.1778   2.3681   2.3789   2.4641   3.2500   3.2931
     3.3215   3.4183   3.4919   3.5508

          k =-0.5000 0.5017 0.0000 ( 85708 PWs)   bands (ev):

  -103.5077-103.4643-103.3688-103.3529-103.0093-102.8264 -68.8241 -68.5991
   -68.5610 -68.5545 -64.0695 -64.0302 -63.9366 -63.9289 -63.9239 -63.8491
   -63.7936 -63.7802 -63.7374 -63.7196 -63.6686 -63.6224 -63.5094 -63.4853
   -63.3288 -63.2814 -63.2629 -63.1419 -35.3155 -35.2399 -35.2274 -35.0996
   -35.0760 -35.0625 -35.0610 -35.0333 -35.0234 -35.0166 -35.0028 -34.9925
   -12.9112 -12.8079 -12.3320 -12.2362 -12.0960 -12.0005 -11.7931 -11.6759
   -11.6136 -11.5873  -6.1312  -6.0389  -5.7057  -5.7004  -5.4257  -5.3083
    -5.0506  -4.9229  -4.6370  -4.5515  -4.0610  -4.0322  -3.9146  -3.8770
    -3.7121  -3.6876  -3.6377  -3.5222  -3.4638  -3.4257  -3.2096  -3.1177
    -2.9057  -2.8775  -2.7904  -2.7715  -2.7303  -2.6907  -2.4145  -2.3757
    -2.2248  -2.2029  -2.1528  -2.1140  -2.0259  -1.9886  -1.9401  -1.8856
    -1.8251  -1.7589  -1.7395  -1.6123  -1.5147  -1.4772  -1.4328  -1.3612
    -1.3197  -1.1968  -1.1302  -1.0445  -0.9529  -0.9442  -0.8283  -0.8071
    -0.6694  -0.6314  -0.5411  -0.4738  -0.0744   0.0402   0.1932   0.2979
     0.7648   0.8455   1.0649   1.1570   1.1810   1.2448   1.3470   1.3832
     1.6306   1.7975   2.0933   2.1619   2.2343   2.4014   2.8310   2.9061
     3.0013   3.0744   3.5096   3.5517

          k =-0.5000 1.0034 0.0000 ( 85594 PWs)   bands (ev):

  -103.5074-103.4645-103.3680-103.3536-103.0093-102.8264 -68.8235 -68.5986
   -68.5604 -68.5540 -64.0695 -64.0304 -63.9363 -63.9292 -63.9219 -63.8566
   -63.7870 -63.7777 -63.7384 -63.7283 -63.6610 -63.6237 -63.5094 -63.4852
   -63.3288 -63.2815 -63.2628 -63.1420 -35.3133 -35.2513 -35.2353 -35.0968
   -35.0737 -35.0598 -35.0583 -35.0559 -35.0259 -35.0206 -35.0156 -35.0137
   -12.6238 -12.5202 -12.0895 -12.0083 -11.9377 -11.8388 -11.6255 -11.5066
   -11.4693 -11.4544  -5.8960  -5.8019  -5.4391  -5.4358  -5.1745  -5.0423
    -4.9046  -4.8430  -4.5350  -4.5141  -4.2489  -4.2187  -4.1623  -4.1208
    -3.8279  -3.7576  -3.7005  -3.6522  -3.6075  -3.4964  -3.4275  -3.3275
    -3.2334  -3.1623  -3.0362  -2.9864  -2.8460  -2.7716  -2.6560  -2.5840
    -2.5085  -2.4506  -2.4172  -2.3670  -2.2308  -2.1657  -2.1412  -2.0429
    -1.9702  -1.9239  -1.8566  -1.7267  -1.6333  -1.5860  -1.5604  -1.4596
    -1.4215  -1.3071  -1.2753  -1.2292  -1.1236  -1.0233  -0.9748  -0.9269
    -0.8657  -0.8144  -0.5172  -0.4511  -0.3198  -0.2339   0.4753   0.5594
     0.7887   0.8841   1.0430   1.0683   1.1045   1.2394   1.3360   1.3848
     1.4647   1.5923   1.9096   1.9763   2.2221   2.3399   2.4958   2.6028
     2.6689   2.7748   3.8400   3.8886

          k =-0.5000 1.5051 0.0000 ( 85522 PWs)   bands (ev):

  -103.5071-103.4648-103.3670-103.3546-103.0093-102.8264 -68.8228 -68.5979
   -68.5597 -68.5533 -64.0696 -64.0307 -63.9361 -63.9298 -63.9188 -63.8651
   -63.7799 -63.7735 -63.7400 -63.7384 -63.6527 -63.6261 -63.5094 -63.4852
   -63.3288 -63.2816 -63.2628 -63.1422 -35.3107 -35.2784 -35.2319 -35.0941
   -35.0844 -35.0694 -35.0579 -35.0571 -35.0508 -35.0431 -35.0172 -35.0109
   -12.1961 -12.0922 -11.7686 -11.7438 -11.6848 -11.5881 -11.4122 -11.3164
   -11.2746 -11.2354  -5.7541  -5.6637  -5.4143  -5.3402  -5.1891  -5.1419
    -4.9884  -4.8751  -4.6824  -4.5992  -4.4840  -4.3325  -4.1704  -4.0672
    -4.0559  -3.9961  -3.9441  -3.9117  -3.7328  -3.6682  -3.5813  -3.5268
    -3.2637  -3.2353  -3.1661  -3.1122  -3.0255  -2.9167  -2.8929  -2.8084
    -2.6819  -2.6202  -2.5665  -2.5472  -2.3782  -2.2800  -2.2072  -2.1225
    -2.0937  -2.0588  -2.0039  -1.9335  -1.7062  -1.6473  -1.6211  -1.5826
    -1.4593  -1.4135  -1.3789  -1.3307  -1.2472  -1.1615  -1.1410  -1.0592
    -0.9377  -0.8708  -0.7127  -0.6601  -0.5436  -0.4590   0.5567   0.6003
     0.9531   0.9838   1.0714   1.1354   1.2873   1.3236   1.3717   1.4345
     1.6355   1.7471   1.8980   1.9356   2.2772   2.4240   2.6623   2.7135
     2.8414   2.8952   3.7397   3.8136

          k =-0.5000 2.0068 0.0000 ( 85518 PWs)   bands (ev):

  -103.5068-103.4651-103.3661-103.3555-103.0092-102.8264 -68.8223 -68.5973
   -68.5592 -68.5527 -64.0697 -64.0310 -63.9358 -63.9303 -63.9160 -63.8719
   -63.7746 -63.7684 -63.7478 -63.7416 -63.6455 -63.6294 -63.5094 -63.4852
   -63.3288 -63.2819 -63.2629 -63.1424 -35.3090 -35.3001 -35.2289 -35.1084
   -35.0897 -35.0776 -35.0677 -35.0670 -35.0526 -35.0510 -35.0144 -35.0083
   -11.7331 -11.6333 -11.5506 -11.4974 -11.4279 -11.3423 -11.2318 -11.1287
   -11.1093 -11.0631  -6.1611  -6.1247  -5.9502  -5.9401  -5.3810  -5.2154
    -5.1025  -5.0342  -4.8053  -4.7264  -4.4663  -4.3825  -4.1722  -3.9893
    -3.9672  -3.8566  -3.7784  -3.7542  -3.6291  -3.6097  -3.5220  -3.4779
    -3.3556  -3.3139  -3.2370  -3.1506  -3.1260  -3.0466  -2.9393  -2.8871
    -2.7278  -2.6619  -2.5457  -2.5197  -2.4332  -2.3343  -2.2661  -2.1938
    -2.1655  -2.1393  -2.0644  -2.0402  -1.8111  -1.7980  -1.7444  -1.7191
    -1.5428  -1.4470  -1.4154  -1.3677  -1.3595  -1.2819  -1.1795  -1.0946
    -1.0786  -1.0396  -0.8207  -0.7907  -0.6907  -0.6873   0.4237   0.4418
     0.9814   1.0371   1.1488   1.1743   1.3146   1.4136   1.7755   1.8156
     1.9399   1.9936   2.0724   2.1401   2.2222   2.3728   2.8742   2.9631
     2.9899   3.0820   3.3812   3.4406

          k =-0.5000-2.5085 0.0000 ( 85504 PWs)   bands (ev):

  -103.5067-103.4652-103.3657-103.3559-103.0092-102.8264 -68.8221 -68.5971
   -68.5589 -68.5525 -64.0698 -64.0311 -63.9357 -63.9305 -63.9148 -63.8747
   -63.7724 -63.7647 -63.7531 -63.7423 -63.6419 -63.6315 -63.5094 -63.4852
   -63.3288 -63.2820 -63.2628 -63.1425 -35.3106 -35.3061 -35.2277 -35.1168
   -35.0888 -35.0861 -35.0759 -35.0661 -35.0519 -35.0500 -35.0134 -35.0073
   -11.5106 -11.4555 -11.3942 -11.3519 -11.3143 -11.2614 -11.2163 -11.0482
   -11.0383 -11.0183  -6.4178  -6.3914  -6.2073  -6.2000  -5.5851  -5.3873
    -5.1481  -5.0359  -4.9520  -4.9423  -4.2040  -4.1466  -4.1340  -3.9668
    -3.8716  -3.8388  -3.7198  -3.6150  -3.5866  -3.5535  -3.5050  -3.4629
    -3.4422  -3.3667  -3.2367  -3.2204  -2.9958  -2.9782  -2.9580  -2.9204
    -2.7121  -2.6825  -2.5262  -2.5101  -2.3737  -2.3442  -2.3198  -2.2352
    -2.2064  -2.1739  -1.9988  -1.9751  -1.9626  -1.8918  -1.8282  -1.7885
    -1.5716  -1.4494  -1.4280  -1.4112  -1.3505  -1.2776  -1.2060  -1.1796
    -1.1390  -1.0459  -0.9742  -0.9493  -0.7336  -0.6900   0.3744   0.3957
     1.0393   1.0546   1.1189   1.1778   1.2461   1.2994   1.8589   1.9191
     2.0029   2.0824   2.3048   2.3546   2.4458   2.5362   2.8068   2.8362
     2.8885   2.9345   3.4882   3.5766

     the Fermi energy is     0.0574 ev

!    total energy              =   -9109.84312345 Ry
     total all-electron energy =     -9109.843123 Ry
     estimated scf accuracy    <          5.6E-09 Ry
     smearing contrib. (-TS)   =      -0.00025631 Ry
     internal energy E=F+TS    =   -9109.84286714 Ry

     The total energy is F=E-TS. E is the sum of the following terms:
     one-electron contribution =  -16439.32614103 Ry
     hartree contribution      =    8078.23488202 Ry
     xc contribution           =    -365.06773814 Ry
     ewald contribution        =    5884.02880072 Ry
     one-center paw contrib.   =   -6267.71267072 Ry

     convergence has been achieved in  28 iterations

     negative rho (up, down):  6.552E-02 0.000E+00

     Forces acting on atoms (cartesian axes, Ry/au):

     atom    1 type  1   force =     0.04256270    0.01084554   -0.01526585
     atom    2 type  1   force =     0.00221840   -0.01179499    0.00542629
     atom    3 type  1   force =    -0.01478852    0.01182919   -0.00448366
     atom    4 type  1   force =    -0.01045123   -0.01241070    0.00815151
     atom    5 type  2   force =     0.00331355    0.01468752   -0.00361709
     atom    6 type  2   force =    -0.00375958   -0.01506496    0.00329546
     atom    7 type  2   force =     0.00335599    0.01488734   -0.00436410
     atom    8 type  2   force =     0.01103700   -0.01441082    0.00179999
     atom    9 type  2   force =     0.00185784    0.00681434   -0.00560949
     atom   10 type  2   force =    -0.02432246   -0.00606281    0.00946746
     atom   11 type  3   force =     0.01145298   -0.00925658   -0.01246300
     atom   12 type  3   force =     0.00282158    0.00948514    0.01152416
     atom   13 type  3   force =    -0.00191036    0.00572754   -0.01006276
     atom   14 type  3   force =    -0.00898871   -0.00537296    0.01196542
     atom   15 type  3   force =    -0.00032882   -0.00959086   -0.01179682
     atom   16 type  3   force =    -0.00382550    0.00970062    0.01131430
     atom   17 type  3   force =     0.00133406    0.00589268   -0.00959470
     atom   18 type  3   force =     0.02590980   -0.00561619   -0.00930201
     atom   19 type  3   force =    -0.03947979    0.00613289    0.01578324
     atom   20 type  3   force =     0.00199107   -0.00642191    0.00783166

     Total force =     0.096183     Total SCF correction =     0.000300


     Computing stress (Cartesian axis) and pressure


     negative rho (up, down):  6.552E-02 0.000E+00
          total   stress  (Ry/bohr**3)                   (kbar)     P=        0.81
  -0.00002091  -0.00000005   0.00001291           -3.08       -0.01        1.90
  -0.00000005   0.00005198  -0.00000700           -0.01        7.65       -1.03
   0.00001291  -0.00000700  -0.00001461            1.90       -1.03       -2.15


     BFGS Geometry Optimization
     Energy error            =      0.0E+00 Ry
     Gradient error          =      4.3E-02 Ry/Bohr

     number of scf cycles    =   1
     number of bfgs steps    =   0

     energy             new  =   -9109.8431234530 Ry

     new trust radius        =       0.0465000550 bohr
     new conv_thr            =       0.0000000100 Ry


ATOMIC_POSITIONS (angstrom)
Ta           15.4143640357        0.9206627784       12.4357618929
Ta            6.5727244382        2.7385280393       12.5948678021
Ta            2.2573298676        0.9211833036       12.4412933078
Ta           11.0799227961        2.7382022203       12.5964700812
Ni           12.8661616123        0.9226958631       11.7597755113
Ni            4.0421106443        2.7367976486       13.2758878323
Ni            4.7942426373        0.9228016049       11.7591135770
Ni           13.6186011410        2.7371438026       13.2753535225
Ni            8.8293297946        0.9185295555       12.3652371807
Ni           -0.0047939908        2.7415613781       12.6726197760
Te           14.2191030330        2.7398713090       10.5286616130
Te            5.3942149708        0.9199428857       14.5066704314
Te           10.5944221966        0.9179544457       10.5140088915
Te            1.7703934615        2.7419264313       14.5228267857
Te            3.4435146873        2.7396944182       10.5287909326
Te           12.2619651667        0.9200569110       14.5067798200
Te            7.0623243754        0.9180418369       10.5140939770
Te           15.8956127837        2.7417977214       14.5117447175
Te           -0.0125928803        0.9181689475       10.8459711943
Te            8.8296115922        2.7413713527       14.2023221531



     Writing config-only to output data dir /ddn/data/physics/eamoujaes/2D-Ta2Ni3Te5/ELASTIC/C12/OUT/ta2ni3te5.save/
     NEW-OLD atomic charge density approx. for the potential

     negative rho (up, down):  6.528E-02 0.000E+00

     total cpu time spent up to now is      620.8 secs

     Self-consistent Calculation

     iteration #  1     ecut=    60.00 Ry     beta= 0.20
     Davidson diagonalization with overlap
     ethr =  1.00E-06,  avg # of iterations =  8.3

     negative rho (up, down):  6.531E-02 0.000E+00

     total cpu time spent up to now is      657.4 secs

     total energy              =   -9109.84938403 Ry
     estimated scf accuracy    <       0.00607364 Ry

     iteration #  2     ecut=    60.00 Ry     beta= 0.20
     Davidson diagonalization with overlap
     ethr =  2.76E-06,  avg # of iterations = 13.4

     negative rho (up, down):  6.531E-02 0.000E+00

     total cpu time spent up to now is      680.3 secs

     total energy              =   -9109.84829683 Ry
     estimated scf accuracy    <       0.08132858 Ry

     iteration #  3     ecut=    60.00 Ry     beta= 0.20
     Davidson diagonalization with overlap
     ethr =  2.76E-06,  avg # of iterations = 11.2

     negative rho (up, down):  6.532E-02 0.000E+00

     total cpu time spent up to now is      699.9 secs

     total energy              =   -9109.85120947 Ry
     estimated scf accuracy    <       0.00457937 Ry

     iteration #  4     ecut=    60.00 Ry     beta= 0.20
     Davidson diagonalization with overlap
     ethr =  2.08E-06,  avg # of iterations =  2.2

     negative rho (up, down):  6.533E-02 0.000E+00

     total cpu time spent up to now is      716.2 secs

     total energy              =   -9109.85142009 Ry
     estimated scf accuracy    <       0.00082258 Ry

     iteration #  5     ecut=    60.00 Ry     beta= 0.20
     Davidson diagonalization with overlap
     ethr =  3.74E-07,  avg # of iterations =  2.0

     negative rho (up, down):  6.537E-02 0.000E+00

     total cpu time spent up to now is      732.2 secs

     total energy              =   -9109.85141363 Ry
     estimated scf accuracy    <       0.00032696 Ry

     iteration #  6     ecut=    60.00 Ry     beta= 0.20
     Davidson diagonalization with overlap
     ethr =  1.49E-07,  avg # of iterations =  2.0

     negative rho (up, down):  6.539E-02 0.000E+00

     total cpu time spent up to now is      748.4 secs

     total energy              =   -9109.85143517 Ry
     estimated scf accuracy    <       0.00014167 Ry

     iteration #  7     ecut=    60.00 Ry     beta= 0.20
     Davidson diagonalization with overlap
     ethr =  6.44E-08,  avg # of iterations =  1.4

     negative rho (up, down):  6.540E-02 0.000E+00

     total cpu time spent up to now is      764.1 secs

     total energy              =   -9109.85144613 Ry
     estimated scf accuracy    <       0.00001917 Ry

     iteration #  8     ecut=    60.00 Ry     beta= 0.20
     Davidson diagonalization with overlap
     ethr =  8.71E-09,  avg # of iterations =  2.2

     negative rho (up, down):  6.542E-02 0.000E+00

     total cpu time spent up to now is      781.6 secs

     total energy              =   -9109.85145080 Ry
     estimated scf accuracy    <       0.00001356 Ry

     iteration #  9     ecut=    60.00 Ry     beta= 0.20
     Davidson diagonalization with overlap
     ethr =  6.16E-09,  avg # of iterations =  2.0

     negative rho (up, down):  6.542E-02 0.000E+00

     total cpu time spent up to now is      797.7 secs

     total energy              =   -9109.85145249 Ry
     estimated scf accuracy    <       0.00001421 Ry

     iteration # 10     ecut=    60.00 Ry     beta= 0.20
     Davidson diagonalization with overlap
     ethr =  6.16E-09,  avg # of iterations =  1.0

     negative rho (up, down):  6.543E-02 0.000E+00

     total cpu time spent up to now is      812.6 secs

     total energy              =   -9109.85145413 Ry
     estimated scf accuracy    <       0.00000513 Ry

     iteration # 11     ecut=    60.00 Ry     beta= 0.20
     Davidson diagonalization with overlap
     ethr =  2.33E-09,  avg # of iterations =  2.0

     negative rho (up, down):  6.543E-02 0.000E+00

     total cpu time spent up to now is      828.6 secs

     total energy              =   -9109.85145515 Ry
     estimated scf accuracy    <       0.00000224 Ry

     iteration # 12     ecut=    60.00 Ry     beta= 0.20
     Davidson diagonalization with overlap
     ethr =  1.02E-09,  avg # of iterations =  2.0

     negative rho (up, down):  6.544E-02 0.000E+00

     total cpu time spent up to now is      844.9 secs

     total energy              =   -9109.85145556 Ry
     estimated scf accuracy    <       0.00000087 Ry

     iteration # 13     ecut=    60.00 Ry     beta= 0.20
     Davidson diagonalization with overlap
     ethr =  3.95E-10,  avg # of iterations =  1.8

     negative rho (up, down):  6.544E-02 0.000E+00

     total cpu time spent up to now is      860.8 secs

     total energy              =   -9109.85145572 Ry
     estimated scf accuracy    <       0.00000111 Ry

     iteration # 14     ecut=    60.00 Ry     beta= 0.20
     Davidson diagonalization with overlap
     ethr =  3.95E-10,  avg # of iterations =  1.0

     negative rho (up, down):  6.544E-02 0.000E+00

     total cpu time spent up to now is      878.7 secs

     total energy              =   -9109.85145596 Ry
     estimated scf accuracy    <       0.00000025 Ry

     iteration # 15     ecut=    60.00 Ry     beta= 0.20
     Davidson diagonalization with overlap
     ethr =  1.12E-10,  avg # of iterations =  2.0

     negative rho (up, down):  6.544E-02 0.000E+00

     total cpu time spent up to now is      894.9 secs

     total energy              =   -9109.85145601 Ry
     estimated scf accuracy    <       0.00000009 Ry

     iteration # 16     ecut=    60.00 Ry     beta= 0.20
     Davidson diagonalization with overlap
     ethr =  4.17E-11,  avg # of iterations =  2.0

     negative rho (up, down):  6.544E-02 0.000E+00

     total cpu time spent up to now is      911.1 secs

     total energy              =   -9109.85145601 Ry
     estimated scf accuracy    <       0.00000009 Ry

     iteration # 17     ecut=    60.00 Ry     beta= 0.20
     Davidson diagonalization with overlap
     ethr =  4.17E-11,  avg # of iterations =  1.0

     negative rho (up, down):  6.544E-02 0.000E+00

     total cpu time spent up to now is      927.9 secs

     total energy              =   -9109.85145602 Ry
     estimated scf accuracy    <       0.00000002 Ry

     iteration # 18     ecut=    60.00 Ry     beta= 0.20
     Davidson diagonalization with overlap
     ethr =  8.47E-12,  avg # of iterations =  2.4

     negative rho (up, down):  6.544E-02 0.000E+00

     total cpu time spent up to now is      944.1 secs

     End of self-consistent calculation

          k = 0.0000 0.0000 0.0000 ( 85695 PWs)   bands (ev):

  -103.4575-103.4219-103.3680-103.3526-103.0083-102.8490 -68.8095 -68.5971
   -68.5897 -68.5683 -64.0202 -63.9861 -63.9347 -63.9277 -63.8727 -63.8011
   -63.7786 -63.7491 -63.7149 -63.6942 -63.6717 -63.6226 -63.5101 -63.4846
   -63.3501 -63.2905 -63.2775 -63.1591 -35.2964 -35.2266 -35.2034 -35.0960
   -35.0876 -35.0752 -35.0708 -35.0475 -35.0290 -35.0185 -35.0159 -34.9939
   -13.0237 -12.7954 -12.5588 -12.2149 -12.1582 -11.8990 -11.8814 -11.8478
   -11.7243 -11.5624  -6.2428  -6.0440  -5.8084  -5.7072  -5.5329  -5.4671
    -5.3662  -4.7905  -4.7113  -4.2626  -4.2336  -3.9009  -3.8706  -3.8113
    -3.7250  -3.6922  -3.6359  -3.5575  -3.2579  -3.2404  -3.1952  -3.0636
    -2.7581  -2.7121  -2.6618  -2.6323  -2.6241  -2.3648  -2.3577  -2.3075
    -2.2739  -2.2432  -2.0797  -1.9956  -1.9539  -1.9123  -1.8967  -1.8541
    -1.7823  -1.7125  -1.6686  -1.5530  -1.3888  -1.3026  -1.2780  -1.2080
    -1.1545  -1.1189  -0.9861  -0.9780  -0.8871  -0.8757  -0.8539  -0.6353
    -0.6176  -0.6010  -0.5134  -0.4295  -0.0501  -0.0150   0.0599   0.3123
     0.7119   0.9638   1.1078   1.2368   1.2654   1.2944   1.4206   1.4705
     1.7432   1.9570   1.9849   2.3190   2.5002   2.5167   3.1073   3.2564
     3.4310   3.4819   3.4994   3.5381

          k = 0.0000 0.5017 0.0000 ( 85647 PWs)   bands (ev):

  -103.4574-103.4220-103.3678-103.3528-103.0083-102.8490 -68.8093 -68.5969
   -68.5895 -68.5681 -64.0201 -63.9861 -63.9345 -63.9279 -63.8720 -63.8042
   -63.7779 -63.7462 -63.7186 -63.6945 -63.6683 -63.6230 -63.5100 -63.4846
   -63.3500 -63.2905 -63.2776 -63.1592 -35.2956 -35.2255 -35.2118 -35.0950
   -35.0865 -35.0742 -35.0698 -35.0465 -35.0281 -35.0272 -35.0246 -35.0026
   -12.9226 -12.6967 -12.4678 -12.1436 -12.0974 -11.8359 -11.8202 -11.7922
   -11.6613 -11.5190  -6.1498  -5.9539  -5.7037  -5.5989  -5.4484  -5.3573
    -5.2785  -4.7053  -4.6423  -4.2393  -4.2004  -3.9962  -3.9187  -3.8901
    -3.8355  -3.7590  -3.6588  -3.5420  -3.2782  -3.2512  -3.2372  -2.9579
    -2.9193  -2.8264  -2.8065  -2.7678  -2.6946  -2.6733  -2.4672  -2.3109
    -2.2688  -2.2343  -2.1699  -2.1049  -1.9875  -1.9628  -1.9308  -1.8875
    -1.8572  -1.7365  -1.6421  -1.5935  -1.5753  -1.4779  -1.4018  -1.3369
    -1.3077  -1.2505  -1.1428  -1.0419  -0.9807  -0.9270  -0.8956  -0.7145
    -0.6768  -0.6131  -0.5295  -0.4514  -0.0871   0.0250   0.1111   0.3697
     0.6863   0.8465   0.9804   1.1264   1.2140   1.2649   1.3481   1.5213
     1.6792   1.8476   2.0100   2.1406   2.2291   2.5211   2.7506   2.9279
     2.9707   3.1034   3.3856   3.4659

          k = 0.0000 1.0034 0.0000 ( 85619 PWs)   bands (ev):

  -103.4570-103.4223-103.3670-103.3536-103.0083-102.8490 -68.8088 -68.5963
   -68.5890 -68.5675 -64.0203 -63.9864 -63.9343 -63.9284 -63.8697 -63.8119
   -63.7755 -63.7397 -63.7271 -63.6957 -63.6608 -63.6244 -63.5101 -63.4846
   -63.3500 -63.2905 -63.2778 -63.1594 -35.2934 -35.2348 -35.2218 -35.0922
   -35.0837 -35.0715 -35.0674 -35.0500 -35.0476 -35.0437 -35.0257 -35.0252
   -12.6327 -12.4151 -12.2100 -11.9696 -11.9116 -11.6896 -11.6425 -11.6146
   -11.4880 -11.4018  -5.9162  -5.7200  -5.4359  -5.3617  -5.2161  -5.0800
    -5.0373  -4.6578  -4.5284  -4.3503  -4.2176  -4.1650  -4.0887  -4.0559
    -4.0182  -3.9529  -3.7823  -3.6252  -3.5657  -3.4099  -3.3308  -3.2784
    -3.2115  -3.1005  -3.0373  -2.8893  -2.8018  -2.7899  -2.6924  -2.5572
    -2.4873  -2.4329  -2.3931  -2.3639  -2.2092  -2.1809  -2.1120  -2.0648
    -2.0130  -1.8768  -1.8046  -1.7087  -1.6897  -1.5968  -1.5290  -1.5053
    -1.3960  -1.3651  -1.2806  -1.1325  -1.0555  -0.9906  -0.9551  -0.9372
    -0.8778  -0.7958  -0.6015  -0.4761  -0.3306  -0.2612   0.4311   0.6840
     0.7066   0.9089   0.9380   1.0399   1.0948   1.1797   1.2444   1.4435
     1.6895   1.7264   1.8099   2.0458   2.2504   2.2763   2.4638   2.5433
     2.6801   2.8342   3.7877   3.8312

          k = 0.0000 1.5051 0.0000 ( 85545 PWs)   bands (ev):

  -103.4567-103.4227-103.3660-103.3546-103.0083-102.8489 -68.8081 -68.5956
   -68.5883 -68.5668 -64.0203 -63.9866 -63.9338 -63.9290 -63.8663 -63.8207
   -63.7713 -63.7372 -63.7325 -63.6976 -63.6526 -63.6269 -63.5100 -63.4846
   -63.3500 -63.2905 -63.2780 -63.1595 -35.2908 -35.2621 -35.2183 -35.0890
   -35.0813 -35.0783 -35.0745 -35.0683 -35.0637 -35.0534 -35.0405 -35.0221
   -12.1989 -12.0011 -11.8407 -11.7479 -11.6522 -11.5243 -11.3827 -11.3498
   -11.2662 -11.2464  -5.7727  -5.5772  -5.4377  -5.3693  -5.1282  -5.0407
    -4.9049  -4.8855  -4.7052  -4.6044  -4.4397  -4.2745  -4.2409  -4.1658
    -4.0809  -4.0626  -3.8506  -3.8177  -3.7358  -3.5988  -3.5371  -3.5042
    -3.4621  -3.1905  -3.0898  -3.0635  -3.0212  -2.8672  -2.8100  -2.7490
    -2.7223  -2.6823  -2.5750  -2.4264  -2.4010  -2.2651  -2.2029  -2.1178
    -2.0916  -2.0455  -1.9656  -1.8257  -1.8182  -1.6746  -1.5910  -1.5669
    -1.4522  -1.4083  -1.3900  -1.3069  -1.1827  -1.1609  -1.1382  -1.1080
    -0.8935  -0.8517  -0.7786  -0.6123  -0.5746  -0.4622   0.5520   0.6800
     0.7691   0.8686   1.0110   1.1454   1.3332   1.3635   1.4237   1.4808
     1.7046   1.7810   1.8131   2.0990   2.1577   2.4680   2.5420   2.6752
     2.9275   2.9790   3.6240   3.7526

          k = 0.0000 2.0068 0.0000 ( 85462 PWs)   bands (ev):

  -103.4563-103.4230-103.3650-103.3555-103.0083-102.8489 -68.8075 -68.5950
   -68.5877 -68.5662 -64.0203 -63.9868 -63.9334 -63.9296 -63.8628 -63.8280
   -63.7662 -63.7465 -63.7266 -63.6997 -63.6451 -63.6303 -63.5100 -63.4845
   -63.3500 -63.2904 -63.2781 -63.1597 -35.2890 -35.2838 -35.2152 -35.1016
   -35.0986 -35.0855 -35.0771 -35.0770 -35.0646 -35.0611 -35.0379 -35.0195
   -11.7221 -11.5751 -11.5504 -11.4674 -11.4153 -11.3765 -11.1990 -11.1165
   -11.1078 -11.0826  -6.0847  -6.0639  -5.9978  -5.9707  -5.3409  -5.1828
    -5.0650  -5.0317  -4.8099  -4.7343  -4.4140  -4.3727  -4.2166  -3.9737
    -3.8664  -3.8489  -3.7313  -3.6958  -3.6551  -3.6220  -3.5298  -3.5008
    -3.3834  -3.3562  -3.2449  -3.1922  -3.1169  -2.9725  -2.8852  -2.8639
    -2.7156  -2.6715  -2.6070  -2.4722  -2.3376  -2.2695  -2.2405  -2.1709
    -2.1612  -2.1085  -2.0700  -1.9454  -1.8995  -1.8230  -1.7375  -1.6958
    -1.5132  -1.4406  -1.4017  -1.3904  -1.3027  -1.2729  -1.2166  -1.1799
    -1.0201  -0.9228  -0.8669  -0.8057  -0.7154  -0.6660   0.3872   0.4864
     0.9103   0.9728   1.0621   1.1751   1.2967   1.6142   1.6998   1.8819
     1.9284   1.9833   2.0661   2.1585   2.2470   2.4316   2.8116   2.8570
     3.0412   3.2543   3.3580   3.4028

          k = 0.0000-2.5085 0.0000 ( 85508 PWs)   bands (ev):

  -103.4562-103.4231-103.3646-103.3560-103.0083-102.8489 -68.8073 -68.5948
   -68.5875 -68.5660 -64.0204 -63.9870 -63.9333 -63.9300 -63.8612 -63.8313
   -63.7625 -63.7519 -63.7242 -63.7006 -63.6412 -63.6328 -63.5100 -63.4845
   -63.3499 -63.2905 -63.2783 -63.1599 -35.2931 -35.2873 -35.2141 -35.1101
   -35.1071 -35.0855 -35.0845 -35.0760 -35.0638 -35.0601 -35.0368 -35.0185
   -11.4955 -11.4150 -11.3567 -11.3406 -11.3075 -11.2674 -11.2065 -11.0615
   -11.0312 -11.0204  -6.3280  -6.3101  -6.2655  -6.2444  -5.5600  -5.4007
    -5.1148  -5.0359  -4.9271  -4.9174  -4.1592  -4.1359  -4.0691  -4.0318
    -3.8993  -3.8458  -3.5902  -3.5792  -3.5648  -3.5339  -3.5141  -3.4736
    -3.3725  -3.3456  -3.2366  -3.2085  -3.0798  -3.0635  -3.0322  -2.9734
    -2.6463  -2.6273  -2.5075  -2.4742  -2.3144  -2.2685  -2.2491  -2.2146
    -2.1752  -2.1624  -1.9961  -1.9614  -1.9480  -1.8835  -1.8484  -1.8401
    -1.5333  -1.4382  -1.3884  -1.3806  -1.3536  -1.2991  -1.2138  -1.1970
    -1.0903  -1.0426  -0.9717  -0.9599  -0.7443  -0.6998   0.3774   0.3955
     0.9875   0.9945   1.0948   1.1438   1.3268   1.3814   1.7819   1.8213
     2.1381   2.2315   2.2401   2.2849   2.4477   2.5483   2.7674   2.7829
     3.0094   3.0535   3.2817   3.3971

          k =-0.5000 0.0000 0.0000 ( 85784 PWs)   bands (ev):

  -103.4575-103.4219-103.3680-103.3526-103.0083-102.8490 -68.8095 -68.5971
   -68.5897 -68.5683 -64.0203 -63.9862 -63.9348 -63.9279 -63.8727 -63.8011
   -63.7787 -63.7491 -63.7149 -63.6943 -63.6717 -63.6227 -63.5102 -63.4847
   -63.3501 -63.2907 -63.2776 -63.1592 -35.2964 -35.2266 -35.2034 -35.0960
   -35.0876 -35.0752 -35.0708 -35.0475 -35.0290 -35.0185 -35.0159 -34.9939
   -12.9854 -12.8909 -12.3993 -12.3089 -12.1376 -12.0544 -11.8476 -11.7595
   -11.6550 -11.6269  -6.1993  -6.1215  -5.8015  -5.7942  -5.5087  -5.4044
    -5.1233  -5.0005  -4.6593  -4.5844  -3.9623  -3.9409  -3.8202  -3.7471
    -3.6932  -3.6357  -3.5992  -3.5261  -3.4156  -3.2525  -3.2402  -3.1949
    -2.7618  -2.6988  -2.6839  -2.6689  -2.5403  -2.4459  -2.3463  -2.3185
    -2.1627  -2.0927  -2.0730  -2.0163  -1.9895  -1.9532  -1.8964  -1.8158
    -1.8125  -1.7435  -1.6942  -1.5735  -1.3887  -1.3122  -1.2586  -1.1401
    -1.1110  -1.0788  -1.0176  -1.0143  -0.9370  -0.8782  -0.7351  -0.7032
    -0.6410  -0.6005  -0.5239  -0.4194  -0.0252   0.0236   0.0504   0.2346
     0.8963   0.9649   1.0675   1.1735   1.2111   1.2907   1.3258   1.3660
     1.7640   1.9370   2.1853   2.3645   2.3707   2.4616   3.2630   3.3081
     3.3375   3.4215   3.4746   3.5513

          k =-0.5000 0.5017 0.0000 ( 85708 PWs)   bands (ev):

  -103.4574-103.4220-103.3678-103.3528-103.0083-102.8490 -68.8093 -68.5969
   -68.5895 -68.5681 -64.0202 -63.9862 -63.9346 -63.9280 -63.8720 -63.8043
   -63.7779 -63.7463 -63.7186 -63.6946 -63.6683 -63.6230 -63.5101 -63.4846
   -63.3500 -63.2906 -63.2777 -63.1592 -35.2956 -35.2255 -35.2118 -35.0950
   -35.0865 -35.0742 -35.0698 -35.0465 -35.0281 -35.0272 -35.0246 -35.0026
   -12.8853 -12.7908 -12.3122 -12.2235 -12.0827 -11.9978 -11.7851 -11.6940
   -11.6045 -11.5804  -6.1059  -6.0293  -5.6968  -5.6891  -5.4131  -5.3021
    -5.0373  -4.9192  -4.6074  -4.5353  -4.0289  -4.0176  -3.8788  -3.8418
    -3.6819  -3.6630  -3.6179  -3.5182  -3.4663  -3.4074  -3.1736  -3.1013
    -2.8854  -2.8291  -2.7847  -2.7604  -2.7294  -2.6812  -2.3843  -2.3478
    -2.2110  -2.1934  -2.1446  -2.0963  -2.0260  -1.9945  -1.9298  -1.8894
    -1.8183  -1.7590  -1.7382  -1.6278  -1.4917  -1.4670  -1.4255  -1.3459
    -1.3089  -1.2014  -1.1044  -1.0347  -0.9486  -0.9436  -0.8346  -0.8010
    -0.6738  -0.6271  -0.5344  -0.4782  -0.0741   0.0314   0.2005   0.2865
     0.7677   0.8321   1.0653   1.1450   1.1756   1.2315   1.3309   1.3706
     1.6470   1.7940   2.0931   2.1600   2.2316   2.3962   2.8341   2.8993
     2.9948   3.0567   3.5448   3.5645

          k =-0.5000 1.0034 0.0000 ( 85594 PWs)   bands (ev):

  -103.4570-103.4223-103.3670-103.3536-103.0083-102.8489 -68.8088 -68.5963
   -68.5890 -68.5675 -64.0202 -63.9864 -63.9343 -63.9284 -63.8697 -63.8119
   -63.7754 -63.7396 -63.7272 -63.6957 -63.6608 -63.6244 -63.5100 -63.4845
   -63.3500 -63.2905 -63.2778 -63.1594 -35.2934 -35.2348 -35.2218 -35.0922
   -35.0837 -35.0715 -35.0674 -35.0500 -35.0476 -35.0437 -35.0257 -35.0252
   -12.5986 -12.5040 -12.0690 -11.9902 -11.9283 -11.8373 -11.6174 -11.5193
   -11.4618 -11.4491  -5.8682  -5.7922  -5.4294  -5.4215  -5.1640  -5.0375
    -4.8882  -4.8269  -4.5031  -4.4916  -4.2256  -4.1877  -4.1353  -4.0977
    -3.7993  -3.7424  -3.6867  -3.6441  -3.5960  -3.5112  -3.4018  -3.3100
    -3.2150  -3.1598  -3.0154  -2.9670  -2.8301  -2.7516  -2.6410  -2.5823
    -2.4839  -2.4322  -2.4106  -2.3646  -2.2014  -2.1597  -2.1243  -2.0437
    -1.9599  -1.9249  -1.8503  -1.7270  -1.6149  -1.5769  -1.5575  -1.4634
    -1.3805  -1.3022  -1.2766  -1.2310  -1.1021  -1.0220  -0.9778  -0.9265
    -0.8720  -0.8198  -0.5100  -0.4553  -0.3199  -0.2471   0.4820   0.5553
     0.7916   0.8707   1.0422   1.0628   1.1084   1.2227   1.3270   1.3779
     1.4738   1.5852   1.9136   1.9706   2.2185   2.3340   2.4946   2.5932
     2.6656   2.7609   3.8628   3.8863

          k =-0.5000 1.5051 0.0000 ( 85522 PWs)   bands (ev):

  -103.4567-103.4227-103.3660-103.3546-103.0083-102.8489 -68.8081 -68.5956
   -68.5883 -68.5668 -64.0203 -63.9867 -63.9339 -63.9291 -63.8662 -63.8207
   -63.7713 -63.7371 -63.7324 -63.6976 -63.6526 -63.6269 -63.5101 -63.4845
   -63.3500 -63.2905 -63.2779 -63.1595 -35.2908 -35.2621 -35.2183 -35.0890
   -35.0813 -35.0783 -35.0745 -35.0683 -35.0637 -35.0534 -35.0405 -35.0221
   -12.1718 -12.0771 -11.7408 -11.7256 -11.6761 -11.5902 -11.4043 -11.3151
   -11.2652 -11.2440  -5.7260  -5.6498  -5.3723  -5.3235  -5.1717  -5.1348
    -4.9731  -4.8647  -4.6534  -4.5885  -4.4668  -4.3235  -4.1600  -4.0541
    -4.0489  -3.9852  -3.9284  -3.8991  -3.7142  -3.6666  -3.5711  -3.5129
    -3.2302  -3.2193  -3.1517  -3.1124  -3.0229  -2.9064  -2.8806  -2.8024
    -2.6610  -2.6085  -2.5542  -2.5361  -2.3434  -2.2696  -2.1966  -2.1089
    -2.0932  -2.0376  -1.9932  -1.9278  -1.6926  -1.6305  -1.5947  -1.5764
    -1.4436  -1.4102  -1.3782  -1.3281  -1.2416  -1.1836  -1.1176  -1.0600
    -0.9346  -0.8751  -0.7051  -0.6653  -0.5445  -0.4716   0.5574   0.6026
     0.9583   0.9889   1.0667   1.1211   1.2849   1.3192   1.3733   1.4298
     1.6322   1.7412   1.8971   1.9326   2.2764   2.4189   2.6627   2.7045
     2.8278   2.8796   3.7494   3.8014

          k =-0.5000 2.0068 0.0000 ( 85518 PWs)   bands (ev):

  -103.4563-103.4230-103.3650-103.3555-103.0083-102.8489 -68.8075 -68.5950
   -68.5877 -68.5662 -64.0204 -63.9869 -63.9335 -63.9297 -63.8628 -63.8281
   -63.7662 -63.7465 -63.7266 -63.6997 -63.6452 -63.6303 -63.5101 -63.4846
   -63.3500 -63.2905 -63.2782 -63.1597 -35.2890 -35.2838 -35.2152 -35.1016
   -35.0986 -35.0855 -35.0771 -35.0770 -35.0646 -35.0611 -35.0379 -35.0195
   -11.7100 -11.6153 -11.5296 -11.4723 -11.4181 -11.3395 -11.2255 -11.1294
   -11.0989 -11.0740  -6.1311  -6.1000  -5.9268  -5.9183  -5.3712  -5.2253
    -5.0781  -5.0217  -4.7862  -4.7203  -4.4377  -4.3763  -4.1558  -3.9773
    -3.9546  -3.8413  -3.7694  -3.7544  -3.6156  -3.5936  -3.5084  -3.4686
    -3.3480  -3.3087  -3.2283  -3.1302  -3.1180  -3.0418  -2.9222  -2.8815
    -2.7109  -2.6618  -2.5274  -2.5106  -2.3902  -2.3219  -2.2500  -2.1772
    -2.1515  -2.1257  -2.0501  -2.0317  -1.7869  -1.7693  -1.7281  -1.7101
    -1.5347  -1.4450  -1.4127  -1.3667  -1.3581  -1.2944  -1.1579  -1.0948
    -1.0806  -1.0403  -0.8127  -0.7796  -0.7037  -0.7003   0.4261   0.4473
     0.9888   1.0404   1.1396   1.1730   1.3039   1.4074   1.7692   1.8083
     1.9486   1.9918   2.0660   2.1286   2.2225   2.3763   2.8767   2.9442
     2.9960   3.0744   3.3831   3.4280

          k =-0.5000-2.5085 0.0000 ( 85504 PWs)   bands (ev):

  -103.4562-103.4231-103.3646-103.3560-103.0083-102.8489 -68.8073 -68.5948
   -68.5875 -68.5660 -64.0204 -63.9870 -63.9333 -63.9300 -63.8612 -63.8312
   -63.7624 -63.7519 -63.7243 -63.7007 -63.6412 -63.6328 -63.5101 -63.4845
   -63.3500 -63.2905 -63.2783 -63.1599 -35.2931 -35.2873 -35.2141 -35.1101
   -35.1071 -35.0855 -35.0845 -35.0760 -35.0638 -35.0601 -35.0368 -35.0185
   -11.4955 -11.4148 -11.3577 -11.3424 -11.3051 -11.2602 -11.2144 -11.0666
   -11.0288 -11.0167  -6.3895  -6.3657  -6.1836  -6.1786  -5.5769  -5.4064
    -5.1271  -5.0213  -4.9389  -4.9269  -4.1746  -4.1309  -4.1116  -3.9657
    -3.8538  -3.8190  -3.7045  -3.6067  -3.5782  -3.5424  -3.4949  -3.4712
    -3.4409  -3.3694  -3.2208  -3.2038  -2.9841  -2.9737  -2.9410  -2.9183
    -2.6942  -2.6721  -2.5107  -2.5009  -2.3279  -2.3156  -2.2976  -2.2270
    -2.1875  -2.1706  -1.9696  -1.9608  -1.9568  -1.8818  -1.8154  -1.7672
    -1.5602  -1.4444  -1.4249  -1.4103  -1.3486  -1.2741  -1.2070  -1.1725
    -1.1459  -1.0527  -0.9690  -0.9442  -0.7343  -0.6963   0.3877   0.3957
     1.0476   1.0607   1.1084   1.1785   1.2277   1.2854   1.8631   1.9179
     1.9878   2.0756   2.3158   2.3503   2.4330   2.5398   2.8129   2.8378
     2.8916   2.9265   3.4907   3.5843

     the Fermi energy is     0.0480 ev

!    total energy              =   -9109.85145602 Ry
     total all-electron energy =     -9109.851456 Ry
     estimated scf accuracy    <          5.2E-09 Ry
     smearing contrib. (-TS)   =      -0.00026132 Ry
     internal energy E=F+TS    =   -9109.85119470 Ry

     The total energy is F=E-TS. E is the sum of the following terms:
     one-electron contribution =  -16424.70158769 Ry
     hartree contribution      =    8070.96622627 Ry
     xc contribution           =    -365.02034843 Ry
     ewald contribution        =    5876.61438007 Ry
     one-center paw contrib.   =   -6267.70986492 Ry

     convergence has been achieved in  18 iterations

     negative rho (up, down):  6.544E-02 0.000E+00

     Forces acting on atoms (cartesian axes, Ry/au):

     atom    1 type  1   force =     0.03451307    0.00750929   -0.01485543
     atom    2 type  1   force =     0.00161486   -0.00773657    0.00373707
     atom    3 type  1   force =    -0.01198670    0.00778992   -0.00317015
     atom    4 type  1   force =    -0.00486756   -0.00811138    0.00496066
     atom    5 type  2   force =     0.00436068    0.00873516   -0.00273912
     atom    6 type  2   force =    -0.00420233   -0.00896439    0.00256844
     atom    7 type  2   force =     0.00135509    0.00893725   -0.00321277
     atom    8 type  2   force =     0.01024888   -0.00860446    0.00087930
     atom    9 type  2   force =     0.00107492    0.00518289   -0.00464714
     atom   10 type  2   force =    -0.02253117   -0.00505713    0.01066125
     atom   11 type  3   force =     0.01040811   -0.00595652   -0.00849946
     atom   12 type  3   force =     0.00204569    0.00601594    0.00894487
     atom   13 type  3   force =    -0.00008514    0.00406002   -0.00638948
     atom   14 type  3   force =    -0.00808678   -0.00385466    0.00733197
     atom   15 type  3   force =    -0.00128104   -0.00609011   -0.00859565
     atom   16 type  3   force =    -0.00195410    0.00611428    0.00786680
     atom   17 type  3   force =     0.00082562    0.00421128   -0.00638212
     atom   18 type  3   force =     0.02365646   -0.00422046   -0.00931408
     atom   19 type  3   force =    -0.03550512    0.00511809    0.01381705
     atom   20 type  3   force =     0.00039655   -0.00507845    0.00703799

     Total force =     0.077904     Total SCF correction =     0.000616


     Computing stress (Cartesian axis) and pressure


     negative rho (up, down):  6.544E-02 0.000E+00
          total   stress  (Ry/bohr**3)                   (kbar)     P=       -0.32
  -0.00002778  -0.00000004   0.00001143           -4.09       -0.01        1.68
  -0.00000004   0.00004445  -0.00000565           -0.01        6.54       -0.83
   0.00001143  -0.00000565  -0.00002318            1.68       -0.83       -3.41

     Energy error            =      8.3E-03 Ry
     Gradient error          =      3.6E-02 Ry/Bohr

     number of scf cycles    =   2
     number of bfgs steps    =   1

     energy             old  =   -9109.8431234530 Ry
     energy             new  =   -9109.8514560210 Ry

     CASE: energy            _new < energy            _old

     new trust radius        =       0.0511500605 bohr
     new conv_thr            =       0.0000000036 Ry


ATOMIC_POSITIONS (angstrom)
Ta           15.4387865963        0.9260633330       12.4254168847
Ta            6.5738795857        2.7329300264       12.5975570197
Ta            2.2488473567        0.9268173397       12.4390185879
Ta           11.0762348862        2.7323305815       12.6000917223
Ni           12.8691343956        0.9290914208       11.7578241374
Ni            4.0392148164        2.7302346958       13.2777123463
Ni            4.7952937554        0.9293374612       11.7568181137
Ni           13.6257658830        2.7308470590       13.2760149075
Ni            8.8301195697        0.9222202660       12.3619553638
Ni           -0.0205481959        2.7379923014       12.6799625904
Te           14.2263924742        2.7355517055       10.5225386893
Te            5.3956789200        0.9243130406       14.5130270915
Te           10.5942631371        0.9208668838       10.5093680082
Te            1.7647248627        2.7391648555       14.5281751218
Te            3.4426766507        2.7352710015       10.5226428972
Te           12.2605049052        0.9245018099       14.5124348859
Te            7.0629259017        0.9210601397       10.5094834228
Te           15.9121742053        2.7387886750       14.5052733308
Te           -0.0374817541        0.9217808813       10.8556798209
Te            8.8299744113        2.7377689763       14.2072560575



     Writing config-only to output data dir /ddn/data/physics/eamoujaes/2D-Ta2Ni3Te5/ELASTIC/C12/OUT/ta2ni3te5.save/
     NEW-OLD atomic charge density approx. for the potential

     negative rho (up, down):  6.518E-02 0.000E+00

     total cpu time spent up to now is     1034.4 secs

     Self-consistent Calculation

     iteration #  1     ecut=    60.00 Ry     beta= 0.20
     Davidson diagonalization with overlap
     ethr =  1.00E-06,  avg # of iterations =  8.8

     negative rho (up, down):  6.521E-02 0.000E+00

     total cpu time spent up to now is     1085.2 secs

     total energy              =   -9109.85453821 Ry
     estimated scf accuracy    <       0.01149436 Ry

     iteration #  2     ecut=    60.00 Ry     beta= 0.20
     Davidson diagonalization with overlap
     ethr =  5.22E-06,  avg # of iterations = 11.8

     negative rho (up, down):  6.521E-02 0.000E+00

     total cpu time spent up to now is     1106.8 secs

     total energy              =   -9109.85168771 Ry
     estimated scf accuracy    <       0.18935758 Ry

     iteration #  3     ecut=    60.00 Ry     beta= 0.20
     Davidson diagonalization with overlap
     ethr =  5.22E-06,  avg # of iterations =  7.1

     negative rho (up, down):  6.522E-02 0.000E+00

     total cpu time spent up to now is     1125.9 secs

     total energy              =   -9109.85836100 Ry
     estimated scf accuracy    <       0.00475922 Ry

     iteration #  4     ecut=    60.00 Ry     beta= 0.20
     Davidson diagonalization with overlap
     ethr =  2.16E-06,  avg # of iterations =  5.3

     negative rho (up, down):  6.523E-02 0.000E+00

     total cpu time spent up to now is     1143.2 secs

     total energy              =   -9109.85862199 Ry
     estimated scf accuracy    <       0.00154071 Ry

     iteration #  5     ecut=    60.00 Ry     beta= 0.20
     Davidson diagonalization with overlap
     ethr =  7.00E-07,  avg # of iterations =  1.9

     negative rho (up, down):  6.527E-02 0.000E+00

     total cpu time spent up to now is     1159.2 secs

     total energy              =   -9109.85861985 Ry
     estimated scf accuracy    <       0.00045826 Ry

     iteration #  6     ecut=    60.00 Ry     beta= 0.20
     Davidson diagonalization with overlap
     ethr =  2.08E-07,  avg # of iterations =  2.8

     negative rho (up, down):  6.528E-02 0.000E+00

     total cpu time spent up to now is     1176.1 secs

     total energy              =   -9109.85864276 Ry
     estimated scf accuracy    <       0.00024132 Ry

     iteration #  7     ecut=    60.00 Ry     beta= 0.20
     Davidson diagonalization with overlap
     ethr =  1.10E-07,  avg # of iterations =  1.1

     negative rho (up, down):  6.529E-02 0.000E+00

     total cpu time spent up to now is     1191.4 secs

     total energy              =   -9109.85864948 Ry
     estimated scf accuracy    <       0.00005414 Ry

     iteration #  8     ecut=    60.00 Ry     beta= 0.20
     Davidson diagonalization with overlap
     ethr =  2.46E-08,  avg # of iterations =  2.0

     negative rho (up, down):  6.530E-02 0.000E+00

     total cpu time spent up to now is     1207.7 secs

     total energy              =   -9109.85865128 Ry
     estimated scf accuracy    <       0.00006449 Ry

     iteration #  9     ecut=    60.00 Ry     beta= 0.20
     Davidson diagonalization with overlap
     ethr =  2.46E-08,  avg # of iterations =  1.2

     negative rho (up, down):  6.532E-02 0.000E+00

     total cpu time spent up to now is     1228.1 secs

     total energy              =   -9109.85865748 Ry
     estimated scf accuracy    <       0.00003259 Ry

     iteration # 10     ecut=    60.00 Ry     beta= 0.20
     Davidson diagonalization with overlap
     ethr =  1.48E-08,  avg # of iterations =  1.0

     negative rho (up, down):  6.532E-02 0.000E+00

     total cpu time spent up to now is     1242.9 secs

     total energy              =   -9109.85865899 Ry
     estimated scf accuracy    <       0.00001644 Ry

     iteration # 11     ecut=    60.00 Ry     beta= 0.20
     Davidson diagonalization with overlap
     ethr =  7.47E-09,  avg # of iterations =  1.2

     negative rho (up, down):  6.533E-02 0.000E+00

     total cpu time spent up to now is     1258.3 secs

     total energy              =   -9109.85866055 Ry
     estimated scf accuracy    <       0.00000230 Ry

     iteration # 12     ecut=    60.00 Ry     beta= 0.20
     Davidson diagonalization with overlap
     ethr =  1.05E-09,  avg # of iterations =  3.8

     negative rho (up, down):  6.533E-02 0.000E+00

     total cpu time spent up to now is     1289.0 secs

     total energy              =   -9109.85866078 Ry
     estimated scf accuracy    <       0.00000189 Ry

     iteration # 13     ecut=    60.00 Ry     beta= 0.20
     Davidson diagonalization with overlap
     ethr =  8.61E-10,  avg # of iterations =  1.2

     negative rho (up, down):  6.533E-02 0.000E+00

     total cpu time spent up to now is     1304.4 secs

     total energy              =   -9109.85866106 Ry
     estimated scf accuracy    <       0.00000085 Ry

     iteration # 14     ecut=    60.00 Ry     beta= 0.20
     Davidson diagonalization with overlap
     ethr =  3.87E-10,  avg # of iterations =  1.1

     negative rho (up, down):  6.533E-02 0.000E+00

     total cpu time spent up to now is     1319.7 secs

     total energy              =   -9109.85866129 Ry
     estimated scf accuracy    <       0.00000029 Ry

     iteration # 15     ecut=    60.00 Ry     beta= 0.20
     Davidson diagonalization with overlap
     ethr =  1.34E-10,  avg # of iterations =  2.0

     negative rho (up, down):  6.533E-02 0.000E+00

     total cpu time spent up to now is     1336.2 secs

     total energy              =   -9109.85866133 Ry
     estimated scf accuracy    <       0.00000041 Ry

     iteration # 16     ecut=    60.00 Ry     beta= 0.20
     Davidson diagonalization with overlap
     ethr =  1.34E-10,  avg # of iterations =  1.0

     negative rho (up, down):  6.533E-02 0.000E+00

     total cpu time spent up to now is     1351.1 secs

     total energy              =   -9109.85866134 Ry
     estimated scf accuracy    <       0.00000008 Ry

     iteration # 17     ecut=    60.00 Ry     beta= 0.20
     Davidson diagonalization with overlap
     ethr =  3.55E-11,  avg # of iterations =  1.7

     negative rho (up, down):  6.533E-02 0.000E+00

     total cpu time spent up to now is     1366.9 secs

     total energy              =   -9109.85866135 Ry
     estimated scf accuracy    <       0.00000002 Ry

     iteration # 18     ecut=    60.00 Ry     beta= 0.20
     Davidson diagonalization with overlap
     ethr =  7.07E-12,  avg # of iterations =  4.2

     negative rho (up, down):  6.533E-02 0.000E+00

     total cpu time spent up to now is     1384.4 secs

     total energy              =   -9109.85866135 Ry
     estimated scf accuracy    <       0.00000002 Ry

     iteration # 19     ecut=    60.00 Ry     beta= 0.20
     Davidson diagonalization with overlap
     ethr =  7.07E-12,  avg # of iterations =  1.8

     negative rho (up, down):  6.533E-02 0.000E+00

     total cpu time spent up to now is     1408.9 secs

     total energy              =   -9109.85866135 Ry
     estimated scf accuracy    <          6.0E-09 Ry

     iteration # 20     ecut=    60.00 Ry     beta= 0.20
     Davidson diagonalization with overlap
     ethr =  2.72E-12,  avg # of iterations =  2.0

     negative rho (up, down):  6.533E-02 0.000E+00

     total cpu time spent up to now is     1424.7 secs

     End of self-consistent calculation

          k = 0.0000 0.0000 0.0000 ( 85695 PWs)   bands (ev):

  -103.4050-103.3803-103.3677-103.3532-103.0086-102.8733 -68.7892 -68.6195
   -68.5962 -68.5828 -63.9688 -63.9435 -63.9334 -63.9273 -63.8201 -63.7773
   -63.7555 -63.7148 -63.7007 -63.6719 -63.6504 -63.6237 -63.5112 -63.4855
   -63.3728 -63.3220 -63.2756 -63.1764 -35.2712 -35.2090 -35.1832 -35.1145
   -35.0930 -35.0872 -35.0719 -35.0661 -35.0411 -35.0391 -35.0145 -35.0054
   -13.0044 -12.7674 -12.5583 -12.1885 -12.1531 -11.8917 -11.8810 -11.8504
   -11.7312 -11.5553  -6.2269  -6.0259  -5.8009  -5.6915  -5.5220  -5.4594
    -5.3721  -4.7828  -4.6904  -4.2443  -4.2189  -3.8720  -3.8465  -3.8026
    -3.7023  -3.6355  -3.6145  -3.5666  -3.2359  -3.1841  -3.1768  -3.0595
    -2.7296  -2.7132  -2.6505  -2.6203  -2.5980  -2.3453  -2.3354  -2.2910
    -2.2593  -2.2432  -2.0746  -1.9854  -1.9376  -1.9109  -1.8902  -1.8529
    -1.7985  -1.7144  -1.6605  -1.5702  -1.3722  -1.2939  -1.2655  -1.1921
    -1.1618  -1.1106  -0.9907  -0.9499  -0.8734  -0.8614  -0.8518  -0.6295
    -0.6175  -0.5989  -0.5058  -0.4393  -0.0498  -0.0112   0.0493   0.2939
     0.7048   0.9750   1.0951   1.2302   1.2531   1.2834   1.4105   1.4512
     1.7577   1.9542   1.9826   2.3096   2.4992   2.5280   3.1081   3.2966
     3.4363   3.4756   3.4773   3.5430

          k = 0.0000 0.5017 0.0000 ( 85647 PWs)   bands (ev):

  -103.4048-103.3804-103.3674-103.3535-103.0086-102.8733 -68.7890 -68.6193
   -68.5960 -68.5826 -63.9687 -63.9435 -63.9332 -63.9274 -63.8193 -63.7766
   -63.7587 -63.7185 -63.6979 -63.6686 -63.6508 -63.6241 -63.5112 -63.4855
   -63.3728 -63.3219 -63.2757 -63.1765 -35.2704 -35.2078 -35.1918 -35.1134
   -35.0919 -35.0861 -35.0709 -35.0651 -35.0478 -35.0402 -35.0232 -35.0141
   -12.9035 -12.6691 -12.4674 -12.1164 -12.0927 -11.8271 -11.8200 -11.7952
   -11.6688 -11.5115  -6.1333  -5.9356  -5.6959  -5.5824  -5.4383  -5.3502
    -5.2853  -4.6959  -4.6203  -4.2106  -4.1928  -3.9714  -3.8901  -3.8657
    -3.8110  -3.7222  -3.6409  -3.5493  -3.2467  -3.2288  -3.2134  -2.9454
    -2.9033  -2.8131  -2.7708  -2.7607  -2.6868  -2.6722  -2.4406  -2.2812
    -2.2499  -2.2327  -2.1601  -2.0908  -1.9991  -1.9592  -1.9180  -1.8910
    -1.8561  -1.7386  -1.6486  -1.5851  -1.5737  -1.4660  -1.3977  -1.3143
    -1.2948  -1.2513  -1.1271  -1.0345  -0.9679  -0.9319  -0.8931  -0.7216
    -0.6697  -0.6076  -0.5268  -0.4551  -0.0880   0.0118   0.1149   0.3631
     0.6790   0.8524   0.9694   1.1164   1.2079   1.2534   1.3324   1.5151
     1.6927   1.8443   2.0054   2.1392   2.2218   2.5271   2.7491   2.9219
     2.9567   3.0934   3.3969   3.4897

          k = 0.0000 1.0034 0.0000 ( 85619 PWs)   bands (ev):

  -103.4044-103.3808-103.3666-103.3542-103.0086-102.8733 -68.7884 -68.6187
   -68.5954 -68.5820 -63.9688 -63.9438 -63.9330 -63.9280 -63.8168 -63.7742
   -63.7665 -63.7269 -63.6912 -63.6612 -63.6522 -63.6255 -63.5113 -63.4854
   -63.3728 -63.3220 -63.2759 -63.1767 -35.2682 -35.2143 -35.2046 -35.1107
   -35.0891 -35.0833 -35.0706 -35.0681 -35.0626 -35.0459 -35.0376 -35.0368
   -12.6142 -12.3884 -12.2099 -11.9497 -11.8981 -11.6849 -11.6392 -11.6141
   -11.4971 -11.3931  -5.8982  -5.7013  -5.4271  -5.3430  -5.2077  -5.0734
    -5.0435  -4.6242  -4.5141  -4.3207  -4.1887  -4.1417  -4.0623  -4.0421
    -3.9906  -3.9428  -3.7822  -3.6242  -3.5492  -3.4003  -3.3048  -3.2542
    -3.2058  -3.0919  -3.0251  -2.8727  -2.7888  -2.7733  -2.6771  -2.5536
    -2.4724  -2.4176  -2.3891  -2.3478  -2.1936  -2.1680  -2.1090  -2.0557
    -2.0057  -1.8685  -1.7961  -1.7133  -1.6909  -1.5763  -1.5270  -1.5077
    -1.3810  -1.3326  -1.2766  -1.1134  -1.0558  -0.9913  -0.9588  -0.9504
    -0.8840  -0.7898  -0.5981  -0.4729  -0.3328  -0.2740   0.4326   0.6823
     0.7022   0.9031   0.9354   1.0320   1.0944   1.1734   1.2340   1.4527
     1.6854   1.7240   1.8049   2.0430   2.2531   2.2760   2.4581   2.5294
     2.6712   2.8252   3.8023   3.8516

          k = 0.0000 1.5051 0.0000 ( 85545 PWs)   bands (ev):

  -103.4039-103.3813-103.3655-103.3553-103.0085-102.8733 -68.7878 -68.6180
   -68.5947 -68.5813 -63.9688 -63.9440 -63.9324 -63.9287 -63.8127 -63.7759
   -63.7701 -63.7368 -63.6837 -63.6546 -63.6531 -63.6281 -63.5112 -63.4855
   -63.3728 -63.3219 -63.2760 -63.1769 -35.2655 -35.2416 -35.2009 -35.1076
   -35.0981 -35.0859 -35.0801 -35.0740 -35.0659 -35.0639 -35.0591 -35.0344
   -12.1812 -11.9758 -11.8404 -11.7292 -11.6351 -11.5198 -11.3848 -11.3393
   -11.2772 -11.2384  -5.7529  -5.5576  -5.4068  -5.3542  -5.1046  -5.0329
    -4.8870  -4.8671  -4.6993  -4.5880  -4.4246  -4.2704  -4.2427  -4.1576
    -4.0600  -4.0437  -3.8409  -3.8140  -3.7337  -3.5856  -3.5160  -3.4964
    -3.4323  -3.1789  -3.0819  -3.0555  -3.0207  -2.8669  -2.7906  -2.7251
    -2.7164  -2.6636  -2.5716  -2.4085  -2.3849  -2.2446  -2.1961  -2.1027
    -2.0869  -2.0344  -1.9589  -1.8169  -1.8046  -1.6578  -1.5826  -1.5432
    -1.4326  -1.4027  -1.3897  -1.3117  -1.1768  -1.1697  -1.1330  -1.1082
    -0.8829  -0.8440  -0.7854  -0.6126  -0.5777  -0.4719   0.5502   0.6858
     0.7561   0.8748   1.0067   1.1446   1.3320   1.3630   1.4274   1.4709
     1.7049   1.7757   1.8068   2.1029   2.1565   2.4645   2.5361   2.6627
     2.9142   2.9693   3.6319   3.7383

          k = 0.0000 2.0068 0.0000 ( 85462 PWs)   bands (ev):

  -103.4034-103.3818-103.3645-103.3564-103.0085-102.8732 -68.7872 -68.6174
   -68.5942 -68.5808 -63.9688 -63.9442 -63.9318 -63.9295 -63.8080 -63.7844
   -63.7651 -63.7460 -63.6770 -63.6575 -63.6455 -63.6317 -63.5112 -63.4854
   -63.3727 -63.3219 -63.2762 -63.1770 -35.2647 -35.2622 -35.1979 -35.1211
   -35.1044 -35.0969 -35.0880 -35.0828 -35.0768 -35.0623 -35.0565 -35.0318
   -11.7050 -11.5489 -11.5388 -11.4454 -11.4031 -11.3783 -11.1930 -11.1251
   -11.1053 -11.0781  -6.0513  -6.0406  -5.9797  -5.9527  -5.3289  -5.1975
    -5.0469  -5.0144  -4.7981  -4.7176  -4.3913  -4.3644  -4.2055  -3.9670
[...]
   -63.4699 -63.4698 -63.2488 -63.2479 -35.1417 -35.1404 -35.1399 -35.1388
   -35.1024 -35.1007 -35.1003 -35.0992 -35.0985 -35.0980 -35.0977 -35.0973
   -12.5813 -12.3312 -12.2443 -11.9178 -11.8619 -11.6937 -11.6602 -11.6097
   -11.5264 -11.3856  -5.8656  -5.6594  -5.4159  -5.3247  -5.1913  -5.0894
    -5.0627  -4.5552  -4.5077  -4.2700  -4.1221  -4.1120  -4.0363  -3.9945
    -3.9293  -3.9228  -3.8056  -3.6308  -3.5073  -3.3833  -3.2539  -3.2076
    -3.1988  -3.0625  -3.0129  -2.8283  -2.7818  -2.7196  -2.6793  -2.5594
    -2.4508  -2.4077  -2.3773  -2.3199  -2.1838  -2.1523  -2.1099  -2.0190
    -2.0001  -1.8480  -1.8000  -1.7492  -1.6882  -1.5501  -1.5108  -1.4950
    -1.3568  -1.2772  -1.2433  -1.0893  -1.0621  -1.0154  -0.9791  -0.9501
    -0.9372  -0.7930  -0.5847  -0.4674  -0.3308  -0.3232   0.4479   0.6868
     0.6934   0.9078   0.9120   1.0211   1.0837   1.1708   1.2077   1.4694
     1.6662   1.7303   1.7951   2.0419   2.2492   2.3399   2.4025   2.5051
     2.6661   2.8207   3.8041   3.8965

          k = 0.0000 1.5051 0.0000 ( 85545 PWs)   bands (ev):

  -103.3277-103.3243-103.3172-103.3163-102.9834-102.9832 -68.6559 -68.6543
   -68.6539 -68.6533 -63.8946 -63.8904 -63.8870 -63.8855 -63.7329 -63.7314
   -63.7013 -63.7005 -63.6125 -63.6103 -63.5866 -63.5861 -63.4798 -63.4783
   -63.4699 -63.4698 -63.2490 -63.2481 -35.1386 -35.1374 -35.1369 -35.1358
   -35.1274 -35.1262 -35.1260 -35.1254 -35.0985 -35.0970 -35.0958 -35.0945
   -12.1496 -11.9207 -11.8765 -11.6959 -11.5956 -11.5328 -11.4098 -11.3304
   -11.3042 -11.2299  -5.7225  -5.5178  -5.3668  -5.3173  -5.0533  -5.0187
    -4.8525  -4.8353  -4.7151  -4.5502  -4.3849  -4.3128  -4.2608  -4.1512
    -4.0221  -4.0045  -3.8520  -3.8088  -3.7353  -3.5341  -3.4970  -3.4907
    -3.3730  -3.1325  -3.0767  -3.0521  -2.9952  -2.9219  -2.7703  -2.7082
    -2.6735  -2.6326  -2.5531  -2.3753  -2.3665  -2.2148  -2.1708  -2.0956
    -2.0461  -2.0341  -1.9745  -1.7987  -1.7797  -1.6128  -1.5566  -1.5026
    -1.4094  -1.3770  -1.3693  -1.3653  -1.2076  -1.1660  -1.1235  -1.0931
    -0.8737  -0.8347  -0.7943  -0.6169  -0.5841  -0.4918   0.5450   0.7071
     0.7299   0.9093   0.9989   1.1473   1.3166   1.3550   1.4389   1.4507
     1.7415   1.7517   1.7788   2.1020   2.1977   2.4523   2.4950   2.6404
     2.9198   2.9522   3.6589   3.7147

          k = 0.0000 2.0068 0.0000 ( 85462 PWs)   bands (ev):

  -103.3268-103.3226-103.3188-103.3171-102.9834-102.9832 -68.6553 -68.6538
   -68.6534 -68.6527 -63.8944 -63.8897 -63.8878 -63.8858 -63.7276 -63.7258
   -63.7104 -63.7099 -63.6053 -63.6025 -63.5903 -63.5901 -63.4798 -63.4783
   -63.4699 -63.4698 -63.2491 -63.2483 -35.1499 -35.1487 -35.1486 -35.1479
   -35.1358 -35.1346 -35.1341 -35.1330 -35.0954 -35.0942 -35.0930 -35.0921
   -11.6684 -11.5444 -11.4961 -11.4288 -11.4062 -11.3679 -11.2037 -11.1674
   -11.0927 -11.0691  -5.9992  -5.9924  -5.9442  -5.9163  -5.2967  -5.2720
    -5.0084  -4.9690  -4.7932  -4.6815  -4.3582  -4.3294  -4.1925  -3.9533
    -3.8965  -3.8082  -3.7438  -3.7352  -3.6285  -3.5899  -3.4496  -3.4458
    -3.3442  -3.3284  -3.2459  -3.2413  -3.0588  -2.9735  -2.8789  -2.8623
    -2.6469  -2.6114  -2.5882  -2.4108  -2.2795  -2.2232  -2.1883  -2.1364
    -2.1351  -2.0988  -2.0888  -1.8801  -1.8267  -1.8017  -1.6501  -1.6486
    -1.4756  -1.4589  -1.3959  -1.3601  -1.3517  -1.2405  -1.2301  -1.1380
    -0.9828  -0.9228  -0.8694  -0.7938  -0.7090  -0.7052   0.3928   0.5011
     0.8720   1.0343   1.0397   1.1757   1.2921   1.6278   1.6438   1.8812
     1.9237   1.9873   2.0345   2.1806   2.2612   2.3920   2.8117   2.8390
     3.0357   3.2847   3.3246   3.3538

          k = 0.0000-2.5085 0.0000 ( 85508 PWs)   bands (ev):

  -103.3264-103.3212-103.3202-103.3175-102.9834-102.9832 -68.6551 -68.6535
   -68.6532 -68.6525 -63.8944 -63.8891 -63.8886 -63.8860 -63.7231 -63.7193
   -63.7179 -63.7165 -63.6015 -63.5960 -63.5955 -63.5926 -63.4798 -63.4783
   -63.4699 -63.4698 -63.2494 -63.2485 -35.1584 -35.1571 -35.1571 -35.1563
   -35.1349 -35.1337 -35.1331 -35.1321 -35.0942 -35.0931 -35.0919 -35.0913
   -11.4095 -11.4091 -11.2850 -11.2843 -11.2807 -11.2796 -11.1915 -11.1891
   -11.0027 -11.0014  -6.2286  -6.2284  -6.2152  -6.2125  -5.5129  -5.5107
    -5.0412  -5.0398  -4.8640  -4.8614  -4.0984  -4.0971  -4.0111  -4.0102
    -3.8593  -3.8582  -3.5512  -3.5505  -3.5392  -3.5385  -3.4611  -3.4589
    -3.4428  -3.4413  -3.1840  -3.1831  -3.0559  -3.0549  -2.9743  -2.9723
    -2.5851  -2.5844  -2.4593  -2.4585  -2.2310  -2.2276  -2.1652  -2.1642
    -2.1591  -2.1577  -1.9528  -1.9477  -1.8873  -1.8868  -1.7890  -1.7857
    -1.4503  -1.4493  -1.3786  -1.3763  -1.3026  -1.3017  -1.2018  -1.2009
    -1.0812  -1.0808  -0.9429  -0.9427  -0.7242  -0.7234   0.4033   0.4045
     0.9818   0.9825   1.1058   1.1081   1.3750   1.3769   1.7431   1.7448
     2.2040   2.2092   2.2496   2.2510   2.4879   2.4891   2.7731   2.7749
     3.0074   3.0080   3.3598   3.3646

          k =-0.5000 0.0000 0.0000 ( 85784 PWs)   bands (ev):

  -103.3295-103.3267-103.3147-103.3145-102.9834-102.9833 -68.6573 -68.6558
   -68.6554 -68.6547 -63.8951 -63.8916 -63.8857 -63.8848 -63.7403 -63.7389
   -63.6811 -63.6803 -63.6297 -63.6277 -63.5821 -63.5813 -63.4800 -63.4785
   -63.4700 -63.4699 -63.2486 -63.2477 -35.1452 -35.1440 -35.1434 -35.1424
   -35.1062 -35.1053 -35.1018 -35.1013 -35.0687 -35.0676 -35.0672 -35.0668
   -12.8894 -12.8875 -12.3314 -12.3310 -12.0704 -12.0693 -11.8305 -11.8298
   -11.6321 -11.6319  -6.1098  -6.1084  -5.7862  -5.7843  -5.4400  -5.4399
    -5.0687  -5.0680  -4.5749  -4.5720  -3.9047  -3.9024  -3.7101  -3.7090
    -3.5412  -3.5400  -3.5289  -3.5274  -3.3138  -3.3120  -3.1017  -3.0998
    -2.6804  -2.6798  -2.6594  -2.6576  -2.4314  -2.4290  -2.2728  -2.2714
    -2.1179  -2.1160  -2.0221  -2.0202  -1.9664  -1.9653  -1.8944  -1.8904
    -1.7564  -1.7544  -1.7048  -1.7026  -1.3173  -1.3159  -1.1840  -1.1829
    -1.0513  -1.0501  -1.0278  -1.0241  -0.8324  -0.8303  -0.7524  -0.7518
    -0.5808  -0.5801  -0.4734  -0.4720   0.0091   0.0102   0.0691   0.0742
     0.8849   0.8866   1.1075   1.1087   1.2371   1.2383   1.2916   1.2951
     1.8430   1.8440   2.3126   2.3140   2.4055   2.4086   3.2636   3.2645
     3.4239   3.4249   3.5604   3.5622

          k =-0.5000 0.5017 0.0000 ( 85708 PWs)   bands (ev):

  -103.3292-103.3264-103.3150-103.3147-102.9834-102.9833 -68.6571 -68.6556
   -68.6552 -68.6545 -63.8949 -63.8914 -63.8858 -63.8849 -63.7395 -63.7381
   -63.6843 -63.6834 -63.6268 -63.6249 -63.5825 -63.5817 -63.4799 -63.4784
   -63.4699 -63.4698 -63.2487 -63.2478 -35.1442 -35.1430 -35.1424 -35.1414
   -35.1050 -35.1042 -35.1009 -35.1003 -35.0773 -35.0762 -35.0758 -35.0754
   -12.7902 -12.7883 -12.2443 -12.2439 -12.0158 -12.0147 -11.7660 -11.7652
   -11.5828 -11.5826  -6.0163  -6.0149  -5.6805  -5.6788  -5.3447  -5.3446
    -4.9832  -4.9824  -4.5172  -4.5144  -3.9650  -3.9628  -3.7668  -3.7663
    -3.5729  -3.5719  -3.5326  -3.5317  -3.4161  -3.4153  -3.0635  -3.0612
    -2.8014  -2.8010  -2.7190  -2.7181  -2.6877  -2.6865  -2.2957  -2.2947
    -2.1730  -2.1727  -2.1064  -2.1047  -2.0154  -2.0145  -1.9134  -1.9118
    -1.7970  -1.7961  -1.7462  -1.7453  -1.4257  -1.4214  -1.3701  -1.3664
    -1.2156  -1.2142  -1.0307  -1.0272  -0.9581  -0.9579  -0.8247  -0.8232
    -0.6555  -0.6543  -0.4915  -0.4912  -0.0545  -0.0516   0.2371   0.2384
     0.7811   0.7828   1.0683   1.0715   1.1877   1.1891   1.2995   1.3010
     1.7316   1.7330   2.1282   2.1307   2.3222   2.3233   2.8630   2.8632
     3.0030   3.0037   3.5457   3.5464

          k =-0.5000 1.0034 0.0000 ( 85594 PWs)   bands (ev):

  -103.3286-103.3256-103.3159-103.3154-102.9834-102.9833 -68.6566 -68.6550
   -68.6546 -68.6540 -63.8948 -63.8910 -63.8862 -63.8851 -63.7370 -63.7356
   -63.6919 -63.6911 -63.6201 -63.6182 -63.5840 -63.5833 -63.4798 -63.4783
   -63.4699 -63.4698 -63.2488 -63.2479 -35.1416 -35.1405 -35.1399 -35.1389
   -35.1022 -35.1014 -35.0999 -35.0990 -35.0986 -35.0979 -35.0977 -35.0975
   -12.5063 -12.5044 -12.0005 -12.0000 -11.8644 -11.8634 -11.5923 -11.5916
   -11.4447 -11.4445  -5.7781  -5.7768  -5.4074  -5.4061  -5.0991  -5.0987
    -4.8300  -4.8290  -4.4216  -4.4199  -4.1605  -4.1585  -4.0239  -4.0234
    -3.7131  -3.7123  -3.6119  -3.6118  -3.5983  -3.5965  -3.3042  -3.3011
    -3.1459  -3.1436  -2.9334  -2.9317  -2.7590  -2.7580  -2.5939  -2.5934
    -2.4124  -2.4120  -2.3792  -2.3779  -2.1501  -2.1499  -2.0528  -2.0521
    -1.9400  -1.9383  -1.8055  -1.8038  -1.5530  -1.5476  -1.4950  -1.4925
    -1.2909  -1.2893  -1.2532  -1.2507  -1.0481  -1.0469  -0.9556  -0.9554
    -0.8756  -0.8748  -0.4783  -0.4775  -0.3173  -0.3157   0.5386   0.5400
     0.8207   0.8228   1.0226   1.0234   1.1557   1.1581   1.3177   1.3181
     1.5389   1.5399   1.9440   1.9473   2.2542   2.2571   2.5488   2.5495
     2.6999   2.7010   3.8840   3.8842

          k =-0.5000 1.5051 0.0000 ( 85522 PWs)   bands (ev):

  -103.3277-103.3243-103.3172-103.3163-102.9834-102.9832 -68.6559 -68.6543
   -68.6539 -68.6533 -63.8946 -63.8904 -63.8870 -63.8855 -63.7329 -63.7314
   -63.7013 -63.7005 -63.6124 -63.6103 -63.5866 -63.5861 -63.4798 -63.4783
   -63.4699 -63.4698 -63.2489 -63.2481 -35.1386 -35.1375 -35.1368 -35.1358
   -35.1274 -35.1262 -35.1260 -35.1254 -35.0984 -35.0974 -35.0953 -35.0947
   -12.0838 -12.0820 -11.6634 -11.6617 -11.6550 -11.6531 -11.3749 -11.3744
   -11.2486 -11.2483  -5.6365  -5.6355  -5.2620  -5.2609  -5.1385  -5.1370
    -4.8881  -4.8877  -4.5640  -4.5630  -4.3835  -4.3832  -4.0990  -4.0982
    -3.9938  -3.9927  -3.8983  -3.8952  -3.6656  -3.6649  -3.4999  -3.4997
    -3.1558  -3.1545  -3.1078  -3.1054  -2.9736  -2.9730  -2.8308  -2.8305
    -2.5896  -2.5887  -2.5050  -2.5044  -2.2522  -2.2513  -2.1378  -2.1354
    -2.0360  -2.0352  -1.9438  -1.9414  -1.6242  -1.6196  -1.5327  -1.5287
    -1.3987  -1.3964  -1.3515  -1.3506  -1.2417  -1.2394  -1.0597  -1.0569
    -0.9142  -0.9137  -0.6862  -0.6851  -0.5258  -0.5253   0.5882   0.5896
     0.9890   0.9908   1.0820   1.0827   1.2891   1.2896   1.3803   1.3807
     1.6860   1.6868   1.9080   1.9111   2.3351   2.3396   2.6723   2.6731
     2.8341   2.8346   3.7698   3.7712

          k =-0.5000 2.0068 0.0000 ( 85518 PWs)   bands (ev):

  -103.3268-103.3226-103.3188-103.3171-102.9834-102.9832 -68.6553 -68.6538
   -68.6534 -68.6527 -63.8945 -63.8898 -63.8879 -63.8859 -63.7276 -63.7258
   -63.7104 -63.7099 -63.6053 -63.6026 -63.5903 -63.5902 -63.4799 -63.4784
   -63.4699 -63.4698 -63.2492 -63.2483 -35.1499 -35.1487 -35.1486 -35.1479
   -35.1358 -35.1346 -35.1340 -35.1330 -35.0954 -35.0943 -35.0928 -35.0922
   -11.6250 -11.6236 -11.4592 -11.4587 -11.3616 -11.3611 -11.2045 -11.2041
   -11.0738 -11.0732  -6.0511  -6.0502  -5.8495  -5.8477  -5.3261  -5.3249
    -4.9920  -4.9911  -4.7263  -4.7243  -4.3571  -4.3556  -4.0542  -4.0537
    -3.8983  -3.8964  -3.7575  -3.7554  -3.5692  -3.5681  -3.4421  -3.4420
    -3.3087  -3.3073  -3.1864  -3.1856  -3.0586  -3.0569  -2.8814  -2.8811
    -2.6492  -2.6474  -2.4841  -2.4836  -2.2880  -2.2869  -2.1841  -2.1814
    -2.1236  -2.1216  -1.9998  -1.9992  -1.7213  -1.7149  -1.6711  -1.6680
    -1.4882  -1.4854  -1.3804  -1.3799  -1.3237  -1.3213  -1.0951  -1.0943
    -1.0580  -1.0577  -0.7722  -0.7708  -0.7346  -0.7336   0.4461   0.4474
     1.0255   1.0267   1.1340   1.1347   1.3610   1.3628   1.7642   1.7659
     1.9664   1.9666   2.0787   2.0796   2.3052   2.3094   2.8904   2.8922
     3.0309   3.0317   3.3963   3.3964

          k =-0.5000-2.5085 0.0000 ( 85504 PWs)   bands (ev):

  -103.3264-103.3212-103.3202-103.3175-102.9834-102.9832 -68.6551 -68.6535
   -68.6532 -68.6525 -63.8944 -63.8891 -63.8886 -63.8860 -63.7231 -63.7193
   -63.7179 -63.7164 -63.6015 -63.5960 -63.5955 -63.5926 -63.4798 -63.4784
   -63.4699 -63.4698 -63.2493 -63.2484 -35.1584 -35.1571 -35.1571 -35.1563
   -35.1349 -35.1337 -35.1331 -35.1321 -35.0942 -35.0931 -35.0919 -35.0913
   -11.4095 -11.4091 -11.2933 -11.2923 -11.2685 -11.2679 -11.1966 -11.1941
   -11.0013 -11.0001  -6.3143  -6.3135  -6.1095  -6.1073  -5.5303  -5.5285
    -5.0363  -5.0353  -4.8791  -4.8763  -4.0799  -4.0785  -4.0433  -4.0432
    -3.8070  -3.8058  -3.6225  -3.6215  -3.5428  -3.5425  -3.4837  -3.4829
    -3.4387  -3.4385  -3.1735  -3.1721  -2.9697  -2.9683  -2.9140  -2.9128
    -2.6409  -2.6384  -2.4706  -2.4705  -2.2520  -2.2488  -2.2293  -2.2289
    -2.1234  -2.1232  -1.9483  -1.9435  -1.8991  -1.8988  -1.7328  -1.7279
    -1.4809  -1.4792  -1.3894  -1.3860  -1.2905  -1.2900  -1.1955  -1.1944
    -1.1117  -1.1105  -0.9270  -0.9260  -0.7228  -0.7218   0.4087   0.4094
     1.0899   1.0900   1.1074   1.1097   1.2276   1.2293   1.8846   1.8879
     2.0123   2.0153   2.3322   2.3325   2.4767   2.4789   2.8088   2.8103
     2.9085   2.9095   3.5486   3.5529

     the Fermi energy is     0.0272 ev

!    total energy              =   -9109.87625121 Ry
     total all-electron energy =     -9109.876251 Ry
     estimated scf accuracy    <          8.4E-11 Ry
     smearing contrib. (-TS)   =      -0.00015969 Ry
     internal energy E=F+TS    =   -9109.87609152 Ry

     The total energy is F=E-TS. E is the sum of the following terms:
     one-electron contribution =  -16384.01178324 Ry
     hartree contribution      =    8050.73032854 Ry
     xc contribution           =    -364.91798576 Ry
     ewald contribution        =    5856.02672433 Ry
     one-center paw contrib.   =   -6267.70337539 Ry

     convergence has been achieved in  18 iterations

     negative rho (up, down):  6.539E-02 0.000E+00

     Forces acting on atoms (cartesian axes, Ry/au):

     atom    1 type  1   force =    -0.00016989    0.00013707    0.00033128
     atom    2 type  1   force =     0.00002797   -0.00015981    0.00013467
     atom    3 type  1   force =     0.00030662    0.00015674   -0.00000537
     atom    4 type  1   force =    -0.00034796   -0.00016149    0.00031039
     atom    5 type  2   force =     0.00032525    0.00039736    0.00016125
     atom    6 type  2   force =     0.00009411   -0.00040483    0.00011483
     atom    7 type  2   force =     0.00013885    0.00041567    0.00013108
     atom    8 type  2   force =     0.00027033   -0.00036125    0.00024992
     atom    9 type  2   force =     0.00015216   -0.00004095   -0.00014524
     atom   10 type  2   force =     0.00018907    0.00001983   -0.00055409
     atom   11 type  3   force =    -0.00059517   -0.00024234   -0.00048550
     atom   12 type  3   force =     0.00005830    0.00025163    0.00029451
     atom   13 type  3   force =    -0.00035336    0.00001187    0.00008633
     atom   14 type  3   force =    -0.00018319    0.00001145   -0.00016664
     atom   15 type  3   force =     0.00032832   -0.00026636   -0.00023736
     atom   16 type  3   force =    -0.00017608    0.00023138    0.00019962
     atom   17 type  3   force =     0.00010395   -0.00000572    0.00005617
     atom   18 type  3   force =     0.00029549    0.00001457   -0.00017864
     atom   19 type  3   force =    -0.00023592   -0.00004384   -0.00059183
     atom   20 type  3   force =    -0.00022885    0.00003904    0.00029462

     Total force =     0.001985     Total SCF correction =     0.000048


     Computing stress (Cartesian axis) and pressure


     negative rho (up, down):  6.539E-02 0.000E+00
          total   stress  (Ry/bohr**3)                   (kbar)     P=       -2.90
  -0.00004115   0.00000000   0.00000016           -6.05        0.00        0.02
   0.00000000   0.00002023   0.00000016            0.00        2.98        0.02
   0.00000016   0.00000016  -0.00003831            0.02        0.02       -5.64

     Energy error            =      1.1E-05 Ry
     Gradient error          =      6.0E-04 Ry/Bohr

     bfgs converged in  22 scf cycles and  21 bfgs steps
     (criteria: energy <  1.0E-04 Ry, force <  1.0E-03 Ry/Bohr)

     End of BFGS Geometry Optimization

     Final energy             =   -9109.8762512090 Ry

     File /ddn/data/physics/eamoujaes/2D-Ta2Ni3Te5/ELASTIC/C12/OUT/ta2ni3te5.bfgs deleted, as requested
Begin final coordinates

ATOMIC_POSITIONS (angstrom)
Ta           15.5363761960        0.9325406939       12.4062643888
Ta            6.5374931497        2.7270784556       12.6298416707
Ta            2.1562268759        0.9326850147       12.4135844783
Ta           11.1564082461        2.7268649167       12.6222705538
Ni           12.9548146087        0.9323328091       11.7489932845
Ni            3.9556735179        2.7272965543       13.2823129215
Ni            4.7361717419        0.9325305788       11.7591579895
Ni           13.7348343063        2.7269966545       13.2720232492
Ni            8.8463545807        0.9331111192       12.3490649685
Ni           -0.1534282289        2.7271428950       12.6920839384
Te           14.3346771766        2.7269224071       10.5011448939
Te            5.3300533066        0.9326714133       14.5333647237
Te           10.6579604690        0.9331071494       10.5281423917
Te            1.6599964277        2.7262559396       14.5087799790
Te            3.3611414583        2.7271836260       10.5086851597
Te           12.3649438007        0.9324855253       14.5258061868
Te            7.0315709165        0.9334424502       10.5341923560
Te           16.0264564056        2.7260730858       14.5037968222
Te           -0.1488335310        0.9339084653       10.8445325656
Te            8.8496709389        2.7263027001       14.1942084781
End final coordinates



     Writing all to output data dir /ddn/data/physics/eamoujaes/2D-Ta2Ni3Te5/ELASTIC/C12/OUT/ta2ni3te5.save/
 
     init_run     :     83.99s CPU     36.96s WALL (       1 calls)
     electrons    :  22109.04s CPU   8120.40s WALL (      22 calls)
     update_pot   :   1166.13s CPU    395.93s WALL (      21 calls)
     forces       :   1056.43s CPU    360.38s WALL (      22 calls)
     stress       :   2530.33s CPU    860.03s WALL (      22 calls)

     Called by init_run:
     wfcinit      :     27.55s CPU      9.85s WALL (       1 calls)
     potinit      :     18.55s CPU      6.35s WALL (       1 calls)
     hinit0       :     35.35s CPU     19.47s WALL (       1 calls)

     Called by electrons:
     c_bands      :  15915.70s CPU   5569.64s WALL (     460 calls)
     sum_band     :   3819.11s CPU   1373.21s WALL (     460 calls)
     v_of_rho     :   1078.17s CPU    411.76s WALL (     472 calls)
     newd         :    646.39s CPU    276.89s WALL (     472 calls)
     PAW_pot      :    315.24s CPU    114.08s WALL (     493 calls)
     mix_rho      :    258.05s CPU     98.76s WALL (     460 calls)

     Called by c_bands:
     init_us_2    :    144.64s CPU     48.81s WALL (    1972 calls)
     init_us_2:cp :    144.57s CPU     48.79s WALL (    1972 calls)
     cegterg      :  15011.80s CPU   5153.95s WALL (     920 calls)

     Called by *egterg:
     cdiaghg      :    183.52s CPU     63.25s WALL (    3120 calls)
     h_psi        :  10317.35s CPU   3543.83s WALL (    3184 calls)
     s_psi        :    887.45s CPU    296.00s WALL (    3184 calls)
     g_psi        :     40.37s CPU     13.49s WALL (    2262 calls)

     Called by h_psi:
     h_psi:calbec :    918.99s CPU    307.46s WALL (    3184 calls)
     vloc_psi     :   8439.83s CPU   2904.15s WALL (    3184 calls)
     add_vuspsi   :    890.07s CPU    297.03s WALL (    3184 calls)

     General routines
     calbec       :   1433.76s CPU    480.80s WALL (    4366 calls)
     fft          :    807.34s CPU    302.94s WALL (    6673 calls)
     ffts         :     26.67s CPU      9.64s WALL (     932 calls)
     fftw         :   7499.73s CPU   2610.74s WALL (  664664 calls)
     interpolate  :     95.49s CPU     35.83s WALL (     472 calls)
 
     Parallel routines
 
     PWSCF        :      7h30m CPU      2h45m WALL

 
   This run was terminated on:  19:49:27  31Jul2024            

=------------------------------------------------------------------------------=
   JOB DONE.
=------------------------------------------------------------------------------=
