
     Program PWSCF v.7.1 starts on 31Jul2024 at 19:49:32 

     This program is part of the open-source Quantum ESPRESSO suite
     for quantum simulation of materials; please cite
         "P. Giannozzi et al., J. Phys.:Condens. Matter 21 395502 (2009);
         "P. Giannozzi et al., J. Phys.:Condens. Matter 29 465901 (2017);
         "P. Giannozzi et al., J. Chem. Phys. 152 154105 (2020);
          URL http://www.quantum-espresso.org", 
     in publications or presentations arising from this work. More details at
     http://www.quantum-espresso.org/quote

     Parallel version (MPI & OpenMP), running on      72 processor cores
     Number of MPI processes:                24
     Threads/MPI process:                     3

     MPI processes distributed on     3 nodes
     28478 MiB available memory on the printing compute node when the environment starts
 
     Waiting for input...
     Reading input from standard input
Warning: card &CELL ignored
Warning: card CELL_DYNAMICS='BFGS' ignored
Warning: card PRESS=0.0 ignored
Warning: card CELL_DOFREE='2DXY' ignored
Warning: card / ignored

     Current dimensions of program PWSCF are:
     Max number of different atomic species (ntypx) = 10
     Max number of k-points (npk) =  40000
     Max angular momentum in pseudopotentials (lmaxx) =  4
     Message from routine read_pp_mesh:
     mismatch in mesh size, discarding the one in header
     Message from routine read_pp_mesh:
     mismatch in mesh size, discarding the one in header
     Message from routine read_pp_mesh:
     mismatch in mesh size, discarding the one in header
 
     K-points division:     npool     =       8
     R & G space division:  proc/nbgrp/npool/nimage =       3
     Subspace diagonalization in iterative solution of the eigenvalue problem:
     a serial algorithm will be used

 
     Parallelization info
     --------------------
     sticks:   dense  smooth     PW     G-vecs:    dense   smooth      PW
     Min        2941    1471    413               645229   228265   34191
     Max        2941    1472    413               645229   228268   34193
     Sum        8823    4415   1239              1935687   684799  102577
 
     Using Slab Decomposition
 


     bravais-lattice index     =            0
     lattice parameter (alat)  =      34.6878  a.u.
     unit-cell volume          =   10901.4105 (a.u.)^3
     number of atoms/cell      =           20
     number of atomic types    =            3
     number of electrons       =       220.00
     number of Kohn-Sham states=          132
     kinetic-energy cutoff     =      60.0000  Ry
     charge density cutoff     =     480.0000  Ry
     scf convergence threshold =      1.0E-08
     mixing beta               =       0.2000
     number of iterations used =            8  plain     mixing
     energy convergence thresh.=      1.0E-04
     force convergence thresh. =      1.0E-03
     Exchange-correlation= SLA PW PBX PBC
                           (   1   4   3   4   0   0   0)
     nstep                     =         2000


     celldm(1)=  34.687813  celldm(2)=   0.000000  celldm(3)=   0.000000
     celldm(4)=   0.000000  celldm(5)=   0.000000  celldm(6)=   0.000000

     crystal axes: (cart. coord. in units of alat)
               a(1) = (   1.000000   0.000000   0.000000 )  
               a(2) = (   0.000000   0.191501   0.000000 )  
               a(3) = (   0.000000   0.000000   1.363892 )  

     reciprocal axes: (cart. coord. in units 2 pi/alat)
               b(1) = (  1.000000  0.000000  0.000000 )  
               b(2) = (  0.000000  5.221893  0.000000 )  
               b(3) = (  0.000000  0.000000  0.733196 )  


     PseudoPot. # 1 for Ta read from file:
     /ddn/data/physics/eamoujaes/PSEUDO-CREATED/Ta.upf
     MD5 check sum: d865b2c2c09566b116f2b8decb2c153d
     Pseudo is Projector augmented-wave + core cor, Zval = 13.0
     Generated using ATOMPAW code
     Shape of augmentation charge: SINC**2
     Using radial grid of 2342 points,  6 beta functions with: 
                l(1) =   0
                l(2) =   0
                l(3) =   1
                l(4) =   1
                l(5) =   2
                l(6) =   2
     Q(r) pseudized with 0 coefficients 


     PseudoPot. # 2 for Ni read from file:
     /ddn/data/physics/eamoujaes/PSEUDO-CREATED/Ni.upf
     MD5 check sum: 85a2a5d9d38f4289a1cc30d5adb66a03
     Pseudo is Projector augmented-wave + core cor, Zval = 18.0
     Generated using ATOMPAW code
     Shape of augmentation charge: SINC**2
     Using radial grid of 2342 points,  6 beta functions with: 
                l(1) =   0
                l(2) =   0
                l(3) =   1
                l(4) =   1
                l(5) =   2
                l(6) =   2
     Q(r) pseudized with 0 coefficients 


     PseudoPot. # 3 for Te read from file:
     /ddn/data/physics/eamoujaes/PSEUDO-CREATED/Te.upf
     MD5 check sum: 8d958f193a7511a138982c2e72838810
     Pseudo is Projector augmented-wave + core cor, Zval =  6.0
     Generated using ATOMPAW code
     Shape of augmentation charge: SINC**2
     Using radial grid of 2342 points,  4 beta functions with: 
                l(1) =   0
                l(2) =   0
                l(3) =   1
                l(4) =   1
     Q(r) pseudized with 0 coefficients 


     atomic species   valence    mass     pseudopotential
        Ta            13.00   180.94790     Ta( 1.00)
        Ni            18.00    58.69340     Ni( 1.00)
        Te             6.00   127.60000     Te( 1.00)

     No symmetry found



   Cartesian axes

     site n.     atom                  positions (alat units)
         1           Ta  tau(   1) = (   0.8385182   0.0498433   0.6779168  )
         2           Ta  tau(   2) = (   0.3580056   0.1495298   0.6859880  )
         3           Ta  tau(   3) = (   0.1234014   0.0498433   0.6779073  )
         4           Ta  tau(   4) = (   0.6039144   0.1495298   0.6859968  )
         5           Ni  tau(   5) = (   0.7008285   0.0498433   0.6407545  )
         6           Ni  tau(   6) = (   0.2203149   0.1495298   0.7231501  )
         7           Ni  tau(   7) = (   0.2610845   0.0498433   0.6407400  )
         8           Ni  tau(   8) = (   0.7415973   0.1495298   0.7231641  )
         9           Ni  tau(   9) = (   0.4809516   0.0498433   0.6737963  )
        10           Ni  tau(  10) = (   0.0004400   0.1495298   0.6901073  )
        11           Te  tau(  11) = (   0.7742995   0.1495298   0.5739408  )
        12           Te  tau(  12) = (   0.2937852   0.0498433   0.7899636  )
        13           Te  tau(  13) = (   0.5772191   0.0498433   0.5730733  )
        14           Te  tau(  14) = (   0.0967068   0.1495298   0.7908311  )
        15           Te  tau(  15) = (   0.1876056   0.1495298   0.5739286  )
        16           Te  tau(  16) = (   0.6681188   0.0498433   0.7899756  )
        17           Te  tau(  17) = (   0.3847036   0.0498433   0.5730645  )
        18           Te  tau(  18) = (   0.8652158   0.1495298   0.7908404  )
        19           Te  tau(  19) = (   0.0004521   0.0498433   0.5904129  )
        20           Te  tau(  20) = (   0.4809631   0.1495298   0.7734897  )

     number of k points=    12  Gaussian smearing, width (Ry)=  0.0020
                       cart. coord. in units 2pi/alat
        k(    1) = (   0.0000000   0.0000000   0.0000000), wk =   0.1000000
        k(    2) = (   0.0000000   0.5221893   0.0000000), wk =   0.2000000
        k(    3) = (   0.0000000   1.0443787   0.0000000), wk =   0.2000000
        k(    4) = (   0.0000000   1.5665680   0.0000000), wk =   0.2000000
        k(    5) = (   0.0000000   2.0887574   0.0000000), wk =   0.2000000
        k(    6) = (   0.0000000  -2.6109467   0.0000000), wk =   0.1000000
        k(    7) = (  -0.5000000   0.0000000   0.0000000), wk =   0.1000000
        k(    8) = (  -0.5000000   0.5221893   0.0000000), wk =   0.2000000
        k(    9) = (  -0.5000000   1.0443787   0.0000000), wk =   0.2000000
        k(   10) = (  -0.5000000   1.5665680   0.0000000), wk =   0.2000000
        k(   11) = (  -0.5000000   2.0887574   0.0000000), wk =   0.2000000
        k(   12) = (  -0.5000000  -2.6109467   0.0000000), wk =   0.1000000

     Dense  grid:  1935687 G-vectors     FFT dimensions: ( 243,  48, 360)

     Smooth grid:   684799 G-vectors     FFT dimensions: ( 180,  36, 240)

     Estimated max dynamical RAM per process >       1.02 GB

     Estimated total dynamical RAM >      21.14 GB

     Initial potential from superposition of free atoms

     starting charge     219.9927, renormalised to     220.0000

     negative rho (up, down):  5.074E-02 0.000E+00
     Starting wfcs are  260 randomized atomic wfcs
     Checking if some PAW data can be deallocated... 

     total cpu time spent up to now is       67.0 secs

     Self-consistent Calculation

     iteration #  1     ecut=    60.00 Ry     beta= 0.20
     Davidson diagonalization with overlap
     ethr =  1.00E-02,  avg # of iterations =  3.0

     negative rho (up, down):  5.123E-02 0.000E+00

     total cpu time spent up to now is       85.4 secs

     total energy              =   -9107.83603262 Ry
     estimated scf accuracy    <       7.85703803 Ry

     iteration #  2     ecut=    60.00 Ry     beta= 0.20
     Davidson diagonalization with overlap
     ethr =  3.57E-03,  avg # of iterations =  2.3

     negative rho (up, down):  5.236E-02 0.000E+00

     total cpu time spent up to now is      102.4 secs

     total energy              =   -9107.30073379 Ry
     estimated scf accuracy    <      23.22160113 Ry

     iteration #  3     ecut=    60.00 Ry     beta= 0.20
     Davidson diagonalization with overlap
     ethr =  3.57E-03,  avg # of iterations =  2.0

     negative rho (up, down):  5.296E-02 0.000E+00

     total cpu time spent up to now is      118.3 secs

     total energy              =   -9108.65947775 Ry
     estimated scf accuracy    <      29.28695622 Ry

     iteration #  4     ecut=    60.00 Ry     beta= 0.20
     Davidson diagonalization with overlap
     ethr =  3.57E-03,  avg # of iterations =  1.0

     negative rho (up, down):  5.405E-02 0.000E+00

     total cpu time spent up to now is      133.1 secs

     total energy              =   -9109.81968036 Ry
     estimated scf accuracy    <       1.92238365 Ry

     iteration #  5     ecut=    60.00 Ry     beta= 0.20
     Davidson diagonalization with overlap
     ethr =  8.74E-04,  avg # of iterations =  1.0

     negative rho (up, down):  5.505E-02 0.000E+00

     total cpu time spent up to now is      148.0 secs

     total energy              =   -9109.82730562 Ry
     estimated scf accuracy    <       1.02280260 Ry

     iteration #  6     ecut=    60.00 Ry     beta= 0.20
     Davidson diagonalization with overlap
     ethr =  4.65E-04,  avg # of iterations =  1.0

     negative rho (up, down):  5.659E-02 0.000E+00

     total cpu time spent up to now is      162.9 secs

     total energy              =   -9109.77704211 Ry
     estimated scf accuracy    <       0.65806863 Ry

     iteration #  7     ecut=    60.00 Ry     beta= 0.20
     Davidson diagonalization with overlap
     ethr =  2.99E-04,  avg # of iterations =  1.6

     negative rho (up, down):  6.129E-02 0.000E+00

     total cpu time spent up to now is      178.6 secs

     total energy              =   -9109.70320873 Ry
     estimated scf accuracy    <       0.34507744 Ry

     iteration #  8     ecut=    60.00 Ry     beta= 0.20
     Davidson diagonalization with overlap
     ethr =  1.57E-04,  avg # of iterations =  7.8

     negative rho (up, down):  6.214E-02 0.000E+00

     total cpu time spent up to now is      197.5 secs

     total energy              =   -9109.77049439 Ry
     estimated scf accuracy    <       0.37529208 Ry

     iteration #  9     ecut=    60.00 Ry     beta= 0.20
     Davidson diagonalization with overlap
     ethr =  1.57E-04,  avg # of iterations =  1.0

     negative rho (up, down):  6.234E-02 0.000E+00

     total cpu time spent up to now is      212.3 secs

     total energy              =   -9109.73418456 Ry
     estimated scf accuracy    <       0.21357553 Ry

     iteration # 10     ecut=    60.00 Ry     beta= 0.20
     Davidson diagonalization with overlap
     ethr =  9.71E-05,  avg # of iterations =  1.3

     negative rho (up, down):  6.330E-02 0.000E+00

     total cpu time spent up to now is      228.1 secs

     total energy              =   -9109.75747790 Ry
     estimated scf accuracy    <       0.01488387 Ry

     iteration # 11     ecut=    60.00 Ry     beta= 0.20
     Davidson diagonalization with overlap
     c_bands:  2 eigenvalues not converged
     ethr =  6.77E-06,  avg # of iterations = 16.3

     negative rho (up, down):  6.411E-02 0.000E+00

     total cpu time spent up to now is      251.4 secs

     total energy              =   -9109.75739079 Ry
     estimated scf accuracy    <       0.01442162 Ry

     iteration # 12     ecut=    60.00 Ry     beta= 0.20
     Davidson diagonalization with overlap
     ethr =  6.56E-06,  avg # of iterations =  2.8

     negative rho (up, down):  6.508E-02 0.000E+00

     total cpu time spent up to now is      267.4 secs

     total energy              =   -9109.75784254 Ry
     estimated scf accuracy    <       0.00288369 Ry

     iteration # 13     ecut=    60.00 Ry     beta= 0.20
     Davidson diagonalization with overlap
     ethr =  1.31E-06,  avg # of iterations =  5.3

     negative rho (up, down):  6.533E-02 0.000E+00

     total cpu time spent up to now is      285.2 secs

     total energy              =   -9109.75811249 Ry
     estimated scf accuracy    <       0.00088500 Ry

     iteration # 14     ecut=    60.00 Ry     beta= 0.20
     Davidson diagonalization with overlap
     ethr =  4.02E-07,  avg # of iterations =  1.2

     negative rho (up, down):  6.551E-02 0.000E+00

     total cpu time spent up to now is      300.4 secs

     total energy              =   -9109.75817772 Ry
     estimated scf accuracy    <       0.00029962 Ry

     iteration # 15     ecut=    60.00 Ry     beta= 0.20
     Davidson diagonalization with overlap
     ethr =  1.36E-07,  avg # of iterations =  1.8

     negative rho (up, down):  6.561E-02 0.000E+00

     total cpu time spent up to now is      316.2 secs

     total energy              =   -9109.75819782 Ry
     estimated scf accuracy    <       0.00018189 Ry

     iteration # 16     ecut=    60.00 Ry     beta= 0.20
     Davidson diagonalization with overlap
     ethr =  8.27E-08,  avg # of iterations =  1.0

     negative rho (up, down):  6.565E-02 0.000E+00

     total cpu time spent up to now is      331.1 secs

     total energy              =   -9109.75820553 Ry
     estimated scf accuracy    <       0.00007041 Ry

     iteration # 17     ecut=    60.00 Ry     beta= 0.20
     Davidson diagonalization with overlap
     ethr =  3.20E-08,  avg # of iterations =  1.4

     negative rho (up, down):  6.566E-02 0.000E+00

     total cpu time spent up to now is      346.8 secs

     total energy              =   -9109.75820536 Ry
     estimated scf accuracy    <       0.00013897 Ry

     iteration # 18     ecut=    60.00 Ry     beta= 0.20
     Davidson diagonalization with overlap
     ethr =  3.20E-08,  avg # of iterations =  1.0

     negative rho (up, down):  6.569E-02 0.000E+00

     total cpu time spent up to now is      361.6 secs

     total energy              =   -9109.75821038 Ry
     estimated scf accuracy    <       0.00003253 Ry

     iteration # 19     ecut=    60.00 Ry     beta= 0.20
     Davidson diagonalization with overlap
     ethr =  1.48E-08,  avg # of iterations =  2.0

     negative rho (up, down):  6.567E-02 0.000E+00

     total cpu time spent up to now is      377.7 secs

     total energy              =   -9109.75821230 Ry
     estimated scf accuracy    <       0.00002634 Ry

     iteration # 20     ecut=    60.00 Ry     beta= 0.20
     Davidson diagonalization with overlap
     ethr =  1.20E-08,  avg # of iterations =  1.0

     negative rho (up, down):  6.565E-02 0.000E+00

     total cpu time spent up to now is      392.6 secs

     total energy              =   -9109.75821397 Ry
     estimated scf accuracy    <       0.00000435 Ry

     iteration # 21     ecut=    60.00 Ry     beta= 0.20
     Davidson diagonalization with overlap
     ethr =  1.98E-09,  avg # of iterations =  1.8

     negative rho (up, down):  6.561E-02 0.000E+00

     total cpu time spent up to now is      408.6 secs

     total energy              =   -9109.75821430 Ry
     estimated scf accuracy    <       0.00000102 Ry

     iteration # 22     ecut=    60.00 Ry     beta= 0.20
     Davidson diagonalization with overlap
     ethr =  4.65E-10,  avg # of iterations =  3.3

     negative rho (up, down):  6.559E-02 0.000E+00

     total cpu time spent up to now is      426.8 secs

     total energy              =   -9109.75821432 Ry
     estimated scf accuracy    <       0.00000103 Ry

     iteration # 23     ecut=    60.00 Ry     beta= 0.20
     Davidson diagonalization with overlap
     ethr =  4.65E-10,  avg # of iterations =  1.4

     negative rho (up, down):  6.556E-02 0.000E+00

     total cpu time spent up to now is      442.5 secs

     total energy              =   -9109.75821441 Ry
     estimated scf accuracy    <       0.00000059 Ry

     iteration # 24     ecut=    60.00 Ry     beta= 0.20
     Davidson diagonalization with overlap
     ethr =  2.67E-10,  avg # of iterations =  1.2

     negative rho (up, down):  6.555E-02 0.000E+00

     total cpu time spent up to now is      458.1 secs

     total energy              =   -9109.75821446 Ry
     estimated scf accuracy    <       0.00000015 Ry

     iteration # 25     ecut=    60.00 Ry     beta= 0.20
     Davidson diagonalization with overlap
     ethr =  6.79E-11,  avg # of iterations =  2.0

     negative rho (up, down):  6.554E-02 0.000E+00

     total cpu time spent up to now is      474.8 secs

     total energy              =   -9109.75821447 Ry
     estimated scf accuracy    <       0.00000015 Ry

     iteration # 26     ecut=    60.00 Ry     beta= 0.20
     Davidson diagonalization with overlap
     ethr =  6.79E-11,  avg # of iterations =  1.0

     negative rho (up, down):  6.553E-02 0.000E+00

     total cpu time spent up to now is      489.6 secs

     total energy              =   -9109.75821447 Ry
     estimated scf accuracy    <       0.00000013 Ry

     iteration # 27     ecut=    60.00 Ry     beta= 0.20
     Davidson diagonalization with overlap
     ethr =  6.10E-11,  avg # of iterations =  1.0

     negative rho (up, down):  6.552E-02 0.000E+00

     total cpu time spent up to now is      504.5 secs

     total energy              =   -9109.75821448 Ry
     estimated scf accuracy    <       0.00000003 Ry

     iteration # 28     ecut=    60.00 Ry     beta= 0.20
     Davidson diagonalization with overlap
     ethr =  1.38E-11,  avg # of iterations =  1.4

     negative rho (up, down):  6.551E-02 0.000E+00

     total cpu time spent up to now is      520.2 secs

     total energy              =   -9109.75821448 Ry
     estimated scf accuracy    <       0.00000006 Ry

     iteration # 29     ecut=    60.00 Ry     beta= 0.20
     Davidson diagonalization with overlap
     ethr =  1.38E-11,  avg # of iterations =  1.0

     negative rho (up, down):  6.549E-02 0.000E+00

     total cpu time spent up to now is      534.9 secs

     End of self-consistent calculation

          k = 0.0000 0.0000 0.0000 ( 85593 PWs)   bands (ev):

  -103.6283-103.5633-103.3747-103.3475-103.0742-102.7263 -68.8547 -68.5035
   -68.4282 -68.4018 -64.1762 -64.1244 -64.0558 -63.9547 -63.9331 -63.9190
   -63.9131 -63.8392 -63.7923 -63.7189 -63.6875 -63.6251 -63.5636 -63.5506
   -63.3605 -63.2425 -63.1150 -63.0907 -35.3999 -35.2650 -35.2252 -35.0305
   -35.0078 -34.9588 -34.9342 -34.9227 -34.9168 -34.9018 -34.8607 -34.8354
   -13.1833 -12.9632 -12.6462 -12.4038 -12.2547 -12.0171 -11.9966 -11.8872
   -11.7525 -11.6620  -6.3725  -6.1645  -5.9180  -5.7915  -5.6641  -5.5411
    -5.3595  -4.8883  -4.8035  -4.4176  -4.2710  -4.1012  -3.9803  -3.9201
    -3.8594  -3.7853  -3.6254  -3.5458  -3.3968  -3.3684  -3.1857  -3.1755
    -2.8835  -2.7512  -2.7265  -2.6777  -2.5886  -2.4878  -2.4073  -2.3695
    -2.3132  -2.1972  -2.1233  -2.0833  -2.0056  -1.9551  -1.8945  -1.8818
    -1.8006  -1.7393  -1.6245  -1.5303  -1.4837  -1.3785  -1.2905  -1.2249
    -1.1433  -1.1217  -1.0155  -0.9537  -0.8594  -0.8168  -0.6826  -0.6322
    -0.5753  -0.5504  -0.5093  -0.3731  -0.1026   0.0522   0.1494   0.5761
     0.6529   1.0987   1.1170   1.2140   1.2967   1.3950   1.4598   1.4932
     1.7412   1.8927   2.0693   2.4221   2.5042   2.6511   2.8495   3.2152
     3.4934   3.5338   3.5637   3.6239

          k = 0.0000 0.5222 0.0000 ( 85499 PWs)   bands (ev):

  -103.6282-103.5634-103.3745-103.3477-103.0742-102.7263 -68.8544 -68.5032
   -68.4279 -68.4015 -64.1762 -64.1246 -64.0551 -63.9591 -63.9330 -63.9148
   -63.9132 -63.8394 -63.7915 -63.7241 -63.6827 -63.6253 -63.5635 -63.5506
   -63.3606 -63.2424 -63.1150 -63.0907 -35.3990 -35.2638 -35.2356 -35.0295
   -35.0063 -34.9576 -34.9453 -34.9213 -34.9158 -34.9003 -34.8717 -34.8464
   -13.0755 -12.8570 -12.5494 -12.3231 -12.1890 -11.9428 -11.9284 -11.8263
   -11.6812 -11.6119  -6.2731  -6.0662  -5.8050  -5.6826  -5.5630  -5.4219
    -5.2572  -4.8097  -4.7221  -4.3915  -4.2521  -4.1394  -4.0455  -4.0063
    -3.9200  -3.8323  -3.6949  -3.5225  -3.3890  -3.3641  -3.2653  -3.0646
    -3.0013  -2.9330  -2.8278  -2.7840  -2.7383  -2.6383  -2.4864  -2.4353
    -2.3557  -2.2782  -2.2339  -2.1072  -2.0328  -2.0073  -1.9436  -1.9008
    -1.8829  -1.7781  -1.6486  -1.5809  -1.5373  -1.4568  -1.4367  -1.3577
    -1.2546  -1.2228  -1.1292  -1.0837  -0.9942  -0.8830  -0.8559  -0.7295
    -0.6706  -0.6104  -0.4897  -0.4035  -0.0591   0.0774   0.1594   0.4671
     0.6806   0.8476   1.0592   1.1464   1.2384   1.2953   1.3618   1.4732
     1.6173   1.8765   2.0789   2.1564   2.2832   2.4999   2.8000   2.9946
     3.1223   3.1567   3.2777   3.4643

          k = 0.0000 1.0444 0.0000 ( 85476 PWs)   bands (ev):

  -103.6279-103.5636-103.3740-103.3482-103.0741-102.7263 -68.8537 -68.5024
   -68.4271 -68.4007 -64.1763 -64.1250 -64.0536 -63.9683 -63.9330 -63.9135
   -63.9066 -63.8402 -63.7895 -63.7345 -63.6736 -63.6265 -63.5635 -63.5506
   -63.3609 -63.2423 -63.1151 -63.0909 -35.3965 -35.2682 -35.2550 -35.0269
   -35.0026 -34.9736 -34.9546 -34.9179 -34.9133 -34.9001 -34.8965 -34.8747
   -12.7661 -12.5535 -12.2769 -12.1092 -12.0005 -11.7443 -11.7321 -11.6528
   -11.4843 -11.4712  -6.0167  -5.8071  -5.5185  -5.4435  -5.2810  -5.1248
    -4.9862  -4.7728  -4.5716  -4.4762  -4.3359  -4.2688  -4.1860  -4.1468
    -4.0739  -3.9709  -3.8187  -3.6532  -3.5866  -3.4631  -3.4218  -3.3674
    -3.2756  -3.1360  -3.0746  -2.9306  -2.8644  -2.7872  -2.7625  -2.6303
    -2.5341  -2.5007  -2.4239  -2.4075  -2.3186  -2.2107  -2.1624  -2.0679
    -1.9958  -1.9429  -1.8550  -1.7363  -1.6734  -1.6188  -1.5449  -1.4930
    -1.4407  -1.3671  -1.2572  -1.2135  -1.0726  -1.0465  -0.9971  -0.8987
    -0.8434  -0.7852  -0.5746  -0.4552  -0.3400  -0.1632   0.3942   0.6737
     0.7398   0.8536   0.9272   1.0554   1.1062   1.2073   1.2963   1.4184
     1.6317   1.7433   1.8309   2.0318   2.2098   2.3324   2.4839   2.6454
     2.7546   2.9387   3.5024   3.8526

          k = 0.0000 1.5666 0.0000 ( 85618 PWs)   bands (ev):

  -103.6277-103.5638-103.3733-103.3489-103.0741-102.7263 -68.8528 -68.5014
   -68.4261 -68.3998 -64.1764 -64.1256 -64.0518 -63.9778 -63.9330 -63.9140
   -63.8986 -63.8414 -63.7865 -63.7459 -63.6647 -63.6283 -63.5636 -63.5506
   -63.3617 -63.2424 -63.1156 -63.0913 -35.3934 -35.2998 -35.2527 -35.0237
   -35.0122 -34.9941 -34.9517 -34.9359 -34.9146 -34.9109 -34.9081 -34.8897
   -12.3036 -12.1055 -11.8991 -11.8313 -11.7254 -11.5161 -11.4357 -11.3839
   -11.2959 -11.2028  -5.8380  -5.6286  -5.5490  -5.4055  -5.2312  -5.1016
    -4.9927  -4.9382  -4.7902  -4.5807  -4.5099  -4.3128  -4.2631  -4.2354
    -4.1659  -4.1172  -3.9231  -3.8389  -3.7743  -3.6556  -3.6294  -3.6034
    -3.5556  -3.2418  -3.1372  -3.0972  -3.0485  -2.9670  -2.8763  -2.8100
    -2.7755  -2.6948  -2.6101  -2.5336  -2.4984  -2.3404  -2.2624  -2.1963
    -2.1260  -2.0650  -1.9842  -1.8824  -1.8135  -1.7150  -1.6554  -1.6049
    -1.5006  -1.4193  -1.3782  -1.3143  -1.2633  -1.1821  -1.1372  -1.0372
    -0.9660  -0.8666  -0.7330  -0.6078  -0.5545  -0.3848   0.5838   0.6573
     0.7425   0.8287   1.0280   1.1210   1.3467   1.3795   1.4240   1.5567
     1.6754   1.7601   1.8513   2.0516   2.1686   2.5202   2.5529   2.7634
     3.0235   3.0625   3.5316   3.8526

          k = 0.0000 2.0888 0.0000 ( 85618 PWs)   bands (ev):

  -103.6274-103.5641-103.3727-103.3495-103.0741-102.7263 -68.8520 -68.5006
   -68.4253 -68.3990 -64.1764 -64.1260 -64.0500 -63.9848 -63.9328 -63.9142
   -63.8929 -63.8425 -63.7826 -63.7553 -63.6578 -63.6304 -63.5635 -63.5505
   -63.3623 -63.2423 -63.1158 -63.0915 -35.3909 -35.3271 -35.2490 -35.0398
   -35.0207 -34.9911 -34.9663 -34.9465 -34.9404 -34.9081 -34.9068 -34.8860
   -11.8014 -11.6473 -11.6168 -11.5295 -11.4386 -11.3073 -11.2123 -11.1261
   -11.0963 -10.9747  -6.2647  -6.1866  -6.0843  -6.0288  -5.4812  -5.2203
    -5.1407  -5.0822  -4.9054  -4.8034  -4.5496  -4.4232  -4.2731  -4.0546
    -3.9685  -3.8648  -3.7658  -3.7219  -3.6903  -3.6782  -3.6167  -3.5445
    -3.4508  -3.3760  -3.2868  -3.2481  -3.2216  -2.9939  -2.9331  -2.8538
    -2.7894  -2.6743  -2.6309  -2.5555  -2.4275  -2.3557  -2.3329  -2.2578
    -2.2026  -2.1195  -2.0719  -2.0129  -1.9352  -1.8498  -1.8122  -1.7055
    -1.5798  -1.4850  -1.4529  -1.3674  -1.3026  -1.2912  -1.1975  -1.1473
    -1.0087  -0.9495  -0.9051  -0.8142  -0.6708  -0.5694   0.3937   0.4912
     0.8316   0.9278   1.0775   1.1641   1.3109   1.6144   1.6923   1.8992
     1.9263   2.0128   2.1326   2.2725   2.3047   2.4844   2.8817   2.9236
     3.1397   3.1954   3.4486   3.5136

          k = 0.0000-2.6109 0.0000 ( 85648 PWs)   bands (ev):

  -103.6273-103.5641-103.3724-103.3497-103.0741-102.7263 -68.8517 -68.5003
   -68.4250 -68.3987 -64.1765 -64.1262 -64.0492 -63.9874 -63.9328 -63.9143
   -63.8908 -63.8431 -63.7803 -63.7596 -63.6551 -63.6315 -63.5635 -63.5505
   -63.3625 -63.2423 -63.1159 -63.0916 -35.3900 -35.3375 -35.2475 -35.0504
   -35.0198 -34.9896 -34.9768 -34.9512 -34.9456 -34.9066 -34.9058 -34.8844
   -11.5464 -11.5226 -11.4384 -11.3435 -11.3110 -11.2536 -11.1260 -11.0229
   -11.0018 -10.9055  -6.5359  -6.4783  -6.3648  -6.3281  -5.7302  -5.3902
    -5.2455  -5.1096  -5.0407  -5.0125  -4.2989  -4.2165  -4.1772  -4.0611
    -3.9589  -3.8897  -3.6997  -3.6585  -3.6539  -3.5997  -3.5383  -3.4996
    -3.3638  -3.3361  -3.3015  -3.2288  -3.1016  -3.0738  -3.0033  -2.9725
    -2.7043  -2.6724  -2.5626  -2.4762  -2.4538  -2.3819  -2.3496  -2.2644
    -2.1544  -2.1345  -2.0828  -2.0588  -2.0207  -1.9398  -1.8617  -1.8059
    -1.6021  -1.5174  -1.4040  -1.3663  -1.3205  -1.3091  -1.2509  -1.2157
    -1.0447  -1.0062  -0.9637  -0.9426  -0.7607  -0.6487   0.3289   0.4231
     0.8839   0.9721   1.0827   1.1775   1.3032   1.4383   1.7646   1.8670
     2.0770   2.2190   2.2661   2.3385   2.5850   2.6814   2.9013   2.9450
     3.1030   3.1942   3.2564   3.4074

          k =-0.5000 0.0000 0.0000 ( 85498 PWs)   bands (ev):

  -103.6283-103.5633-103.3747-103.3475-103.0742-102.7263 -68.8547 -68.5035
   -68.4282 -68.4018 -64.1761 -64.1244 -64.0556 -63.9546 -63.9331 -63.9189
   -63.9130 -63.8391 -63.7921 -63.7188 -63.6875 -63.6250 -63.5635 -63.5506
   -63.3604 -63.2424 -63.1149 -63.0907 -35.3999 -35.2650 -35.2252 -35.0305
   -35.0078 -34.9588 -34.9342 -34.9227 -34.9168 -34.9018 -34.8606 -34.8354
   -13.1703 -13.0003 -12.5806 -12.4311 -12.2541 -12.0933 -11.9974 -11.7771
   -11.7608 -11.7012  -6.3585  -6.1948  -5.9154  -5.8627  -5.6438  -5.4576
    -5.2461  -5.0010  -4.8061  -4.6160  -4.1141  -4.0318  -3.9962  -3.8934
    -3.8312  -3.7364  -3.6213  -3.5577  -3.4504  -3.3699  -3.3283  -3.1818
    -2.8811  -2.7719  -2.7266  -2.6824  -2.5618  -2.4777  -2.3800  -2.3448
    -2.2711  -2.1686  -2.1301  -2.0721  -2.0264  -1.9792  -1.9261  -1.8816
    -1.8161  -1.7090  -1.6426  -1.5098  -1.5036  -1.3882  -1.2860  -1.2156
    -1.1066  -1.0822  -1.0269  -0.9297  -0.8824  -0.8121  -0.6829  -0.6444
    -0.5935  -0.5619  -0.5086  -0.3733  -0.1013   0.0398   0.1739   0.6068
     0.7149   0.9393   1.1568   1.1910   1.2873   1.3490   1.4154   1.4549
     1.7515   2.0325   2.0635   2.3350   2.5313   2.6268   2.9227   3.3198
     3.3954   3.4968   3.5562   3.6542

          k =-0.5000 0.5222 0.0000 ( 85486 PWs)   bands (ev):

  -103.6282-103.5634-103.3745-103.3477-103.0742-102.7263 -68.8544 -68.5032
   -68.4279 -68.4015 -64.1761 -64.1245 -64.0551 -63.9591 -63.9330 -63.9148
   -63.9131 -63.8394 -63.7914 -63.7241 -63.6828 -63.6254 -63.5635 -63.5505
   -63.3606 -63.2424 -63.1149 -63.0907 -35.3990 -35.2638 -35.2356 -35.0295
   -35.0063 -34.9576 -34.9453 -34.9213 -34.9158 -34.9003 -34.8717 -34.8464
   -13.0630 -12.8932 -12.4875 -12.3433 -12.1901 -12.0253 -11.9264 -11.7122
   -11.6930 -11.6504  -6.2591  -6.0954  -5.8024  -5.7531  -5.5368  -5.3412
    -5.1452  -4.9072  -4.7589  -4.5722  -4.1671  -4.1073  -4.0100  -3.9691
    -3.8179  -3.7801  -3.6944  -3.5617  -3.4595  -3.4217  -3.2829  -3.1291
    -3.0071  -2.9152  -2.8253  -2.7942  -2.7352  -2.6203  -2.4758  -2.4230
    -2.2988  -2.2496  -2.2152  -2.1348  -2.0591  -2.0120  -1.9875  -1.9174
    -1.8102  -1.8013  -1.6918  -1.5584  -1.5433  -1.4590  -1.4174  -1.3746
    -1.2657  -1.1946  -1.1148  -1.0190  -0.9884  -0.9322  -0.8058  -0.7793
    -0.6623  -0.6228  -0.5025  -0.4198  -0.0598   0.1150   0.1849   0.4183
     0.8085   0.8371   1.0128   1.1397   1.1971   1.2770   1.3608   1.4191
     1.5759   1.8685   2.0790   2.1695   2.3006   2.4300   2.8802   2.9953
     3.0733   3.2112   3.2860   3.5821

          k =-0.5000 1.0444 0.0000 ( 85504 PWs)   bands (ev):

  -103.6279-103.5636-103.3740-103.3482-103.0741-102.7263 -68.8537 -68.5024
   -68.4271 -68.4007 -64.1763 -64.1251 -64.0536 -63.9683 -63.9330 -63.9135
   -63.9066 -63.8402 -63.7895 -63.7345 -63.6737 -63.6265 -63.5636 -63.5506
   -63.3610 -63.2424 -63.1152 -63.0909 -35.3965 -35.2682 -35.2550 -35.0269
   -35.0026 -34.9736 -34.9546 -34.9179 -34.9133 -34.9001 -34.8965 -34.8747
   -12.7552 -12.5864 -12.2286 -12.1066 -12.0072 -11.8286 -11.7323 -11.5486
   -11.5123 -11.4849  -6.0011  -5.8353  -5.5167  -5.4826  -5.2502  -5.0538
    -4.9331  -4.8272  -4.6220  -4.5765  -4.3364  -4.2839  -4.2032  -4.1599
    -3.9116  -3.8175  -3.7803  -3.7060  -3.6287  -3.5142  -3.4625  -3.3775
    -3.2704  -3.1522  -3.0616  -3.0186  -2.9020  -2.7967  -2.6659  -2.5911
    -2.5466  -2.5281  -2.4426  -2.3803  -2.3141  -2.2131  -2.1837  -2.0565
    -1.9726  -1.9365  -1.8813  -1.7352  -1.6671  -1.5999  -1.5477  -1.4854
    -1.4380  -1.3053  -1.2758  -1.2369  -1.1592  -1.0398  -0.9671  -0.9343
    -0.8469  -0.7930  -0.5176  -0.4330  -0.3333  -0.1590   0.4357   0.5891
     0.7880   0.8947   0.9683   1.0684   1.1097   1.2186   1.3525   1.3894
     1.4384   1.6326   1.8837   1.9920   2.2160   2.3819   2.5145   2.6666
     2.7161   2.8873   3.5794   3.9139

          k =-0.5000 1.5666 0.0000 ( 85570 PWs)   bands (ev):

  -103.6277-103.5638-103.3733-103.3489-103.0741-102.7263 -68.8528 -68.5014
   -68.4261 -68.3998 -64.1764 -64.1256 -64.0518 -63.9778 -63.9329 -63.9139
   -63.8986 -63.8414 -63.7865 -63.7458 -63.6646 -63.6283 -63.5635 -63.5506
   -63.3617 -63.2423 -63.1155 -63.0913 -35.3934 -35.2998 -35.2527 -35.0237
   -35.0122 -34.9941 -34.9517 -34.9359 -34.9146 -34.9109 -34.9081 -34.8897
   -12.2957 -12.1310 -11.8857 -11.8039 -11.7312 -11.5315 -11.4766 -11.3264
   -11.3147 -11.2027  -5.8200  -5.6645  -5.5163  -5.3833  -5.2507  -5.1456
    -5.0280  -4.9158  -4.7797  -4.5729  -4.5529  -4.3232  -4.2700  -4.1299
    -4.0945  -4.0298  -3.9833  -3.9397  -3.8144  -3.7089  -3.6361  -3.5491
    -3.3966  -3.2906  -3.2245  -3.1071  -3.0535  -2.9651  -2.9474  -2.8112
    -2.6952  -2.6645  -2.6033  -2.5741  -2.5112  -2.3395  -2.2592  -2.1897
    -2.1151  -2.0704  -1.9969  -1.9397  -1.7590  -1.6968  -1.6467  -1.5945
    -1.4957  -1.4210  -1.3782  -1.3175  -1.2953  -1.2002  -1.0942  -1.0501
    -0.9765  -0.8668  -0.7246  -0.6296  -0.5390  -0.3879   0.5722   0.6333
     0.8310   0.9439   1.0915   1.1321   1.2636   1.3417   1.3977   1.4684
     1.6431   1.7663   1.8711   1.9619   2.2525   2.4494   2.6924   2.7751
     2.9067   3.0024   3.6581   3.8709

          k =-0.5000 2.0888 0.0000 ( 85686 PWs)   bands (ev):

  -103.6274-103.5641-103.3727-103.3495-103.0741-102.7263 -68.8520 -68.5006
   -68.4253 -68.3990 -64.1765 -64.1260 -64.0500 -63.9848 -63.9329 -63.9143
   -63.8930 -63.8426 -63.7826 -63.7554 -63.6579 -63.6305 -63.5636 -63.5506
   -63.3623 -63.2424 -63.1159 -63.0916 -35.3909 -35.3271 -35.2490 -35.0398
   -35.0207 -34.9911 -34.9663 -34.9465 -34.9404 -34.9081 -34.9068 -34.8860
   -11.7985 -11.6557 -11.6152 -11.5292 -11.4376 -11.2837 -11.2384 -11.1177
   -11.1007 -10.9736  -6.2770  -6.2052  -6.0536  -6.0082  -5.4974  -5.2264
    -5.1736  -5.0760  -4.8960  -4.7660  -4.5778  -4.4239  -4.2410  -4.0571
    -3.9879  -3.9178  -3.7921  -3.7371  -3.6984  -3.6602  -3.5660  -3.5316
    -3.4066  -3.3599  -3.2803  -3.2384  -3.1869  -3.0389  -2.9732  -2.9162
    -2.7018  -2.6478  -2.5774  -2.5428  -2.5249  -2.3806  -2.3457  -2.2542
    -2.1983  -2.1610  -2.0789  -2.0351  -1.8743  -1.8590  -1.7702  -1.7121
    -1.5885  -1.4782  -1.4567  -1.3788  -1.3344  -1.2840  -1.1484  -1.1058
    -1.0766  -1.0054  -0.8588  -0.8195  -0.6580  -0.5873   0.4286   0.4598
     0.8718   1.0161   1.1032   1.2007   1.2890   1.4376   1.7279   1.8421
     1.9696   2.0577   2.1131   2.2130   2.3008   2.4559   2.9199   2.9929
     3.0961   3.1761   3.3761   3.5135

          k =-0.5000-2.6109 0.0000 ( 85704 PWs)   bands (ev):

  -103.6273-103.5641-103.3724-103.3497-103.0741-102.7263 -68.8517 -68.5003
   -68.4250 -68.3987 -64.1766 -64.1263 -64.0493 -63.9874 -63.9329 -63.9144
   -63.8908 -63.8430 -63.7803 -63.7596 -63.6551 -63.6315 -63.5635 -63.5506
   -63.3625 -63.2423 -63.1160 -63.0917 -35.3900 -35.3375 -35.2475 -35.0504
   -35.0198 -34.9896 -34.9768 -34.9512 -34.9456 -34.9066 -34.9058 -34.8844
   -11.5464 -11.5226 -11.4386 -11.3440 -11.3099 -11.2526 -11.1294 -11.0180
   -11.0054 -10.9048  -6.5531  -6.5024  -6.3333  -6.3035  -5.7390  -5.3766
    -5.2749  -5.1012  -5.0321  -5.0236  -4.3164  -4.2154  -4.1862  -4.0071
    -3.9384  -3.8726  -3.7750  -3.6546  -3.6517  -3.6323  -3.5510  -3.5042
    -3.4292  -3.3469  -3.2593  -3.2241  -3.0626  -3.0195  -2.9955  -2.8862
    -2.7084  -2.6584  -2.5478  -2.5132  -2.4692  -2.4302  -2.3635  -2.2720
    -2.1932  -2.1555  -2.0814  -2.0416  -2.0162  -1.9139  -1.8440  -1.7938
    -1.6094  -1.5278  -1.4256  -1.3837  -1.3404  -1.2873  -1.2238  -1.2018
    -1.0999  -1.0226  -0.9460  -0.9301  -0.7450  -0.6460   0.3388   0.4209
     0.9087   1.0233   1.0854   1.2353   1.2492   1.3283   1.7873   1.9478
     2.0232   2.1076   2.3107   2.4092   2.5672   2.6288   2.9166   2.9731
     3.0246   3.1480   3.4180   3.5131

     the Fermi energy is     0.1324 ev

!    total energy              =   -9109.75821448 Ry
     total all-electron energy =     -9109.758214 Ry
     estimated scf accuracy    <          7.2E-09 Ry
     smearing contrib. (-TS)   =      -0.00016568 Ry
     internal energy E=F+TS    =   -9109.75804880 Ry

     The total energy is F=E-TS. E is the sum of the following terms:
     one-electron contribution =  -16508.87915053 Ry
     hartree contribution      =    8113.01268056 Ry
     xc contribution           =    -365.30018418 Ry
     ewald contribution        =    5919.13044216 Ry
     one-center paw contrib.   =   -6267.72183681 Ry

     convergence has been achieved in  29 iterations

     negative rho (up, down):  6.549E-02 0.000E+00

     Forces acting on atoms (cartesian axes, Ry/au):

     atom    1 type  1   force =     0.04817497    0.02356166   -0.01151660
     atom    2 type  1   force =     0.00535161   -0.02636404    0.01086053
     atom    3 type  1   force =    -0.02725645    0.02769055   -0.00991047
     atom    4 type  1   force =    -0.01761848   -0.02687405    0.01424730
     atom    5 type  2   force =     0.00203407    0.03242016   -0.00594483
     atom    6 type  2   force =    -0.00716536   -0.03259083    0.00690834
     atom    7 type  2   force =     0.00806346    0.03189544   -0.00861054
     atom    8 type  2   force =     0.02064114   -0.03113007    0.00525438
     atom    9 type  2   force =     0.00255382    0.01499834   -0.01015619
     atom   10 type  2   force =    -0.02008344   -0.01321075    0.00368999
     atom   11 type  3   force =     0.02006740   -0.02051341   -0.02755073
     atom   12 type  3   force =     0.00488338    0.02066469    0.02512323
     atom   13 type  3   force =    -0.00214979    0.01266956   -0.02176776
     atom   14 type  3   force =    -0.01259953   -0.01210508    0.02561745
     atom   15 type  3   force =    -0.00291880   -0.02148588   -0.02515509
     atom   16 type  3   force =    -0.00690131    0.02084643    0.02474233
     atom   17 type  3   force =     0.00095529    0.01300656   -0.02178125
     atom   18 type  3   force =     0.02831258   -0.01247247   -0.00347118
     atom   19 type  3   force =    -0.04675322    0.01303441    0.01056752
     atom   20 type  3   force =     0.00240866   -0.01404123    0.01885355

     Total force =     0.153469     Total SCF correction =     0.000353


     Computing stress (Cartesian axis) and pressure


     negative rho (up, down):  6.549E-02 0.000E+00
          total   stress  (Ry/bohr**3)                   (kbar)     P=        6.48
  -0.00000333  -0.00000016   0.00001303           -0.49       -0.02        1.92
  -0.00000016   0.00010921  -0.00001545           -0.02       16.07       -2.27
   0.00001303  -0.00001545   0.00002627            1.92       -2.27        3.87


     BFGS Geometry Optimization
     Energy error            =      0.0E+00 Ry
     Gradient error          =      4.8E-02 Ry/Bohr

     number of scf cycles    =   1
     number of bfgs steps    =   0

     energy             new  =   -9109.7582144800 Ry

     new trust radius        =       0.0548508056 bohr
     new conv_thr            =       0.0000000100 Ry


ATOMIC_POSITIONS (angstrom)
Ta           15.4173339204        0.9273918558       12.4377459133
Ta            6.5743824633        2.7308184313       12.5977434805
Ta            2.2507321197        0.9295767730       12.4384215670
Ta           11.0761300473        2.7305485482       12.5996958355
Ni           12.8654845440        0.9320795758       11.7585437254
Ni            4.0403083803        2.7275233576       13.2777996887
Ni            4.7967337247        0.9318019042       11.7568664589
Ni           13.6236834331        2.7282963595       13.2771815063
Ni            8.8296980912        0.9228603424       12.3628311743
Ni           -0.0025507972        2.7377788551       12.6695624688
Te           14.2236615876        2.7339144494       10.5206775336
Te            5.3953060277        0.9258588491       14.5138667447
Te           10.5942954972        0.9216280083       10.5078148757
Te            1.7684827022        2.7383639496       14.5300511270
Te            3.4421441291        2.7333998435       10.5217220427
Te           12.2603375190        0.9259550186       14.5138856243
Te            7.0621239405        0.9218063398       10.5076451299
Te           15.8968842799        2.7381695330       14.5148302595
Te           -0.0164418171        0.9218210778       10.8432111579
Te            8.8298325704        2.7373393820       14.2081546858



     Writing config-only to output data dir /ddn/data/physics/eamoujaes/2D-Ta2Ni3Te5/ELASTIC/C12/OUT/ta2ni3te5.save/
     NEW-OLD atomic charge density approx. for the potential

     negative rho (up, down):  6.493E-02 0.000E+00

     total cpu time spent up to now is      613.9 secs

     Self-consistent Calculation

     iteration #  1     ecut=    60.00 Ry     beta= 0.20
     Davidson diagonalization with overlap
     ethr =  1.00E-06,  avg # of iterations =  8.2

     negative rho (up, down):  6.499E-02 0.000E+00

     total cpu time spent up to now is      663.4 secs

     total energy              =   -9109.77170479 Ry
     estimated scf accuracy    <       0.01895026 Ry

     iteration #  2     ecut=    60.00 Ry     beta= 0.20
     Davidson diagonalization with overlap
     ethr =  8.61E-06,  avg # of iterations =  3.0

     negative rho (up, down):  6.503E-02 0.000E+00

     total cpu time spent up to now is      681.5 secs

     total energy              =   -9109.77355358 Ry
     estimated scf accuracy    <       0.09101078 Ry

     iteration #  3     ecut=    60.00 Ry     beta= 0.20
     Davidson diagonalization with overlap
     ethr =  8.61E-06,  avg # of iterations =  2.0

     negative rho (up, down):  6.504E-02 0.000E+00

     total cpu time spent up to now is      697.5 secs

     total energy              =   -9109.77808193 Ry
     estimated scf accuracy    <       0.00974514 Ry

     iteration #  4     ecut=    60.00 Ry     beta= 0.20
     Davidson diagonalization with overlap
     ethr =  4.43E-06,  avg # of iterations =  1.0

     negative rho (up, down):  6.507E-02 0.000E+00

     total cpu time spent up to now is      712.3 secs

     total energy              =   -9109.77844031 Ry
     estimated scf accuracy    <       0.00253537 Ry

     iteration #  5     ecut=    60.00 Ry     beta= 0.20
     Davidson diagonalization with overlap
     ethr =  1.15E-06,  avg # of iterations =  1.2

     negative rho (up, down):  6.513E-02 0.000E+00

     total cpu time spent up to now is      729.8 secs

     total energy              =   -9109.77832656 Ry
     estimated scf accuracy    <       0.00268515 Ry

     iteration #  6     ecut=    60.00 Ry     beta= 0.20
     Davidson diagonalization with overlap
     ethr =  1.15E-06,  avg # of iterations =  1.0

     negative rho (up, down):  6.516E-02 0.000E+00

     total cpu time spent up to now is      744.6 secs

     total energy              =   -9109.77834425 Ry
     estimated scf accuracy    <       0.00106620 Ry

     iteration #  7     ecut=    60.00 Ry     beta= 0.20
     Davidson diagonalization with overlap
     ethr =  4.85E-07,  avg # of iterations =  1.0

     negative rho (up, down):  6.520E-02 0.000E+00

     total cpu time spent up to now is      759.5 secs

     total energy              =   -9109.77835957 Ry
     estimated scf accuracy    <       0.00027270 Ry

     iteration #  8     ecut=    60.00 Ry     beta= 0.20
     Davidson diagonalization with overlap
     ethr =  1.24E-07,  avg # of iterations =  1.2

     negative rho (up, down):  6.524E-02 0.000E+00

     total cpu time spent up to now is      774.7 secs

     total energy              =   -9109.77836139 Ry
     estimated scf accuracy    <       0.00011175 Ry

     iteration #  9     ecut=    60.00 Ry     beta= 0.20
     Davidson diagonalization with overlap
     ethr =  5.08E-08,  avg # of iterations =  2.0

     negative rho (up, down):  6.527E-02 0.000E+00

     total cpu time spent up to now is      790.8 secs

     total energy              =   -9109.77836881 Ry
     estimated scf accuracy    <       0.00005358 Ry

     iteration # 10     ecut=    60.00 Ry     beta= 0.20
     Davidson diagonalization with overlap
     ethr =  2.44E-08,  avg # of iterations =  1.2

     negative rho (up, down):  6.529E-02 0.000E+00

     total cpu time spent up to now is      808.5 secs

     total energy              =   -9109.77837149 Ry
     estimated scf accuracy    <       0.00002679 Ry

     iteration # 11     ecut=    60.00 Ry     beta= 0.20
     Davidson diagonalization with overlap
     ethr =  1.22E-08,  avg # of iterations =  2.0

     negative rho (up, down):  6.530E-02 0.000E+00

     total cpu time spent up to now is      824.4 secs

     total energy              =   -9109.77837425 Ry
     estimated scf accuracy    <       0.00000589 Ry

     iteration # 12     ecut=    60.00 Ry     beta= 0.20
     Davidson diagonalization with overlap
     ethr =  2.68E-09,  avg # of iterations =  2.0

     negative rho (up, down):  6.530E-02 0.000E+00

     total cpu time spent up to now is      841.7 secs

     total energy              =   -9109.77837502 Ry
     estimated scf accuracy    <       0.00000502 Ry

     iteration # 13     ecut=    60.00 Ry     beta= 0.20
     Davidson diagonalization with overlap
     ethr =  2.28E-09,  avg # of iterations =  1.2

     negative rho (up, down):  6.530E-02 0.000E+00

     total cpu time spent up to now is      856.9 secs

     total energy              =   -9109.77837560 Ry
     estimated scf accuracy    <       0.00000287 Ry

     iteration # 14     ecut=    60.00 Ry     beta= 0.20
     Davidson diagonalization with overlap
     ethr =  1.30E-09,  avg # of iterations =  1.0

     negative rho (up, down):  6.531E-02 0.000E+00

     total cpu time spent up to now is      871.7 secs

     total energy              =   -9109.77837635 Ry
     estimated scf accuracy    <       0.00000207 Ry

     iteration # 15     ecut=    60.00 Ry     beta= 0.20
     Davidson diagonalization with overlap
     ethr =  9.39E-10,  avg # of iterations =  1.0

     negative rho (up, down):  6.531E-02 0.000E+00

     total cpu time spent up to now is      898.5 secs

     total energy              =   -9109.77837662 Ry
     estimated scf accuracy    <       0.00000121 Ry

     iteration # 16     ecut=    60.00 Ry     beta= 0.20
     Davidson diagonalization with overlap
     ethr =  5.52E-10,  avg # of iterations =  1.2

     negative rho (up, down):  6.531E-02 0.000E+00

     total cpu time spent up to now is      913.6 secs

     total energy              =   -9109.77837672 Ry
     estimated scf accuracy    <       0.00000069 Ry

     iteration # 17     ecut=    60.00 Ry     beta= 0.20
     Davidson diagonalization with overlap
     ethr =  3.13E-10,  avg # of iterations =  1.0

     negative rho (up, down):  6.531E-02 0.000E+00

     total cpu time spent up to now is      928.5 secs

     total energy              =   -9109.77837669 Ry
     estimated scf accuracy    <       0.00000020 Ry

     iteration # 18     ecut=    60.00 Ry     beta= 0.20
     Davidson diagonalization with overlap
     ethr =  8.92E-11,  avg # of iterations =  1.2

     negative rho (up, down):  6.531E-02 0.000E+00

     total cpu time spent up to now is      943.7 secs

     total energy              =   -9109.77837670 Ry
     estimated scf accuracy    <       0.00000006 Ry

     iteration # 19     ecut=    60.00 Ry     beta= 0.20
     Davidson diagonalization with overlap
     ethr =  2.90E-11,  avg # of iterations =  2.0

     negative rho (up, down):  6.531E-02 0.000E+00

     total cpu time spent up to now is      959.7 secs

     total energy              =   -9109.77837671 Ry
     estimated scf accuracy    <       0.00000006 Ry

     iteration # 20     ecut=    60.00 Ry     beta= 0.20
     Davidson diagonalization with overlap
     ethr =  2.83E-11,  avg # of iterations =  1.2

     negative rho (up, down):  6.531E-02 0.000E+00

     total cpu time spent up to now is      979.2 secs

     total energy              =   -9109.77837671 Ry
     estimated scf accuracy    <       0.00000001 Ry

     iteration # 21     ecut=    60.00 Ry     beta= 0.20
     Davidson diagonalization with overlap
     ethr =  4.95E-12,  avg # of iterations =  4.0

     negative rho (up, down):  6.531E-02 0.000E+00

     total cpu time spent up to now is     1013.3 secs

     End of self-consistent calculation

          k = 0.0000 0.0000 0.0000 ( 85593 PWs)   bands (ev):

  -103.5740-103.5121-103.3559-103.3285-103.0648-102.7481 -68.8573 -68.5146
   -68.4400 -68.4354 -64.1220 -64.0700 -63.9968 -63.9111 -63.8996 -63.8912
   -63.8665 -63.7911 -63.7693 -63.6983 -63.6703 -63.6097 -63.5541 -63.5444
   -63.3464 -63.2639 -63.1326 -63.1150 -35.3935 -35.2624 -35.2224 -35.0337
   -35.0132 -34.9663 -34.9464 -34.9360 -34.9273 -34.9254 -34.8644 -34.8554
   -13.1333 -12.9110 -12.6173 -12.3608 -12.2329 -12.0008 -11.9747 -11.8837
   -11.7584 -11.6438  -6.3398  -6.1396  -5.8900  -5.7565  -5.6379  -5.5169
    -5.3417  -4.8483  -4.7675  -4.3615  -4.2494  -4.0302  -3.9369  -3.8960
    -3.7955  -3.7311  -3.5829  -3.5385  -3.3707  -3.2816  -3.1669  -3.1255
    -2.8073  -2.7261  -2.7001  -2.6509  -2.5463  -2.4435  -2.3822  -2.3417
    -2.2899  -2.1890  -2.0939  -2.0534  -1.9866  -1.9542  -1.8854  -1.8647
    -1.7958  -1.7150  -1.6349  -1.5278  -1.4636  -1.3587  -1.2825  -1.2155
    -1.1246  -1.1000  -1.0225  -0.9267  -0.8265  -0.7822  -0.6695  -0.6351
    -0.5561  -0.5453  -0.5027  -0.4040  -0.0945   0.0564   0.1372   0.5687
     0.6385   1.0797   1.1245   1.2026   1.2786   1.3866   1.4167   1.4711
     1.7445   1.8769   2.0739   2.4225   2.4895   2.6504   2.8771   3.2012
     3.4785   3.5405   3.5626   3.6115

          k = 0.0000 0.5222 0.0000 ( 85499 PWs)   bands (ev):

  -103.5740-103.5121-103.3557-103.3287-103.0648-102.7481 -68.8570 -68.5143
   -68.4397 -68.4351 -64.1220 -64.0701 -63.9961 -63.9110 -63.9041 -63.8913
   -63.8623 -63.7913 -63.7685 -63.7037 -63.6653 -63.6100 -63.5540 -63.5443
   -63.3465 -63.2638 -63.1326 -63.1150 -35.3925 -35.2609 -35.2330 -35.0327
   -35.0116 -34.9651 -34.9470 -34.9453 -34.9258 -34.9239 -34.8753 -34.8663
   -13.0259 -12.8054 -12.5204 -12.2803 -12.1667 -11.9263 -11.9061 -11.8209
   -11.6884 -11.5929  -6.2391  -6.0407  -5.7762  -5.6457  -5.5386  -5.3976
    -5.2405  -4.7639  -4.6867  -4.3343  -4.2198  -4.0720  -3.9975  -3.9591
    -3.8768  -3.7822  -3.6574  -3.5133  -3.3531  -3.3076  -3.2275  -3.0283
    -2.9313  -2.8923  -2.8024  -2.7597  -2.7131  -2.6147  -2.4505  -2.3884
    -2.3256  -2.2587  -2.2037  -2.0869  -2.0160  -1.9895  -1.9380  -1.8948
    -1.8668  -1.7735  -1.6261  -1.5781  -1.5157  -1.4519  -1.4117  -1.3354
    -1.2677  -1.2028  -1.1045  -1.0665  -0.9776  -0.8681  -0.8546  -0.7281
    -0.6773  -0.6122  -0.4687  -0.4162  -0.0582   0.0808   0.1516   0.4562
     0.6732   0.8465   1.0384   1.1320   1.2227   1.2756   1.3294   1.4661
     1.6224   1.8633   2.0712   2.1539   2.2723   2.4925   2.8038   3.0019
     3.1041   3.1546   3.2638   3.4544

          k = 0.0000 1.0444 0.0000 ( 85476 PWs)   bands (ev):

  -103.5737-103.5123-103.3552-103.3292-103.0648-102.7481 -68.8563 -68.5135
   -68.4390 -68.4343 -64.1221 -64.0705 -63.9947 -63.9132 -63.9110 -63.8916
   -63.8539 -63.7922 -63.7665 -63.7140 -63.6561 -63.6112 -63.5540 -63.5443
   -63.3468 -63.2638 -63.1327 -63.1153 -35.3900 -35.2626 -35.2551 -35.0301
   -35.0077 -34.9754 -34.9622 -34.9426 -34.9221 -34.9202 -34.9038 -34.8946
   -12.7174 -12.5031 -12.2465 -12.0683 -11.9752 -11.7225 -11.7147 -11.6420
   -11.4905 -11.4537  -5.9793  -5.7799  -5.4850  -5.4042  -5.2548  -5.0969
    -4.9704  -4.7052  -4.5331  -4.4148  -4.2666  -4.2116  -4.1503  -4.1007
    -4.0425  -3.9454  -3.7951  -3.6105  -3.5720  -3.4226  -3.3978  -3.3204
    -3.2573  -3.1073  -3.0450  -2.8966  -2.8289  -2.7652  -2.7261  -2.5983
    -2.4999  -2.4784  -2.4053  -2.3860  -2.2776  -2.1891  -2.1349  -2.0555
    -1.9811  -1.9287  -1.8383  -1.7115  -1.6666  -1.6113  -1.5218  -1.4880
    -1.4247  -1.3645  -1.2366  -1.1908  -1.0640  -1.0364  -0.9919  -0.8926
    -0.8480  -0.8001  -0.5692  -0.4622  -0.3390  -0.1772   0.3920   0.6774
     0.7339   0.8488   0.9129   1.0472   1.0871   1.1932   1.2786   1.4186
     1.6277   1.7368   1.8157   2.0219   2.1970   2.3262   2.4736   2.6253
     2.7340   2.9156   3.5249   3.8428

          k = 0.0000 1.5666 0.0000 ( 85618 PWs)   bands (ev):

  -103.5734-103.5126-103.3546-103.3298-103.0648-102.7480 -68.8554 -68.5125
   -68.4380 -68.4334 -64.1222 -64.0710 -63.9931 -63.9226 -63.9110 -63.8920
   -63.8459 -63.7936 -63.7637 -63.7252 -63.6472 -63.6132 -63.5540 -63.5444
   -63.3476 -63.2638 -63.1330 -63.1158 -35.3869 -35.2955 -35.2515 -35.0269
   -35.0125 -35.0006 -34.9587 -34.9401 -34.9387 -34.9303 -34.9168 -34.9143
   -12.2555 -12.0570 -11.8593 -11.7982 -11.6953 -11.4953 -11.4204 -11.3645
   -11.2715 -11.2160  -5.7938  -5.5931  -5.4827  -5.3621  -5.1833  -5.0677
    -4.9454  -4.8992  -4.7472  -4.5562  -4.4860  -4.2993  -4.2303  -4.2081
    -4.1237  -4.0895  -3.9013  -3.8138  -3.7456  -3.6344  -3.5955  -3.5601
    -3.5234  -3.2194  -3.1125  -3.0869  -3.0317  -2.9164  -2.8418  -2.7831
    -2.7455  -2.6821  -2.5909  -2.4914  -2.4671  -2.3147  -2.2375  -2.1615
    -2.1060  -2.0524  -1.9520  -1.8640  -1.7968  -1.6919  -1.6144  -1.5965
    -1.4829  -1.4169  -1.3746  -1.3023  -1.2418  -1.1648  -1.1340  -1.0473
    -0.9523  -0.8714  -0.7299  -0.6060  -0.5678  -0.4000   0.5852   0.6614
     0.7498   0.8126   1.0143   1.1180   1.3469   1.3713   1.4207   1.5427
     1.6678   1.7474   1.8385   2.0381   2.1520   2.5098   2.5398   2.7398
     2.9925   3.0398   3.5440   3.8274

          k = 0.0000 2.0888 0.0000 ( 85618 PWs)   bands (ev):

  -103.5732-103.5128-103.3540-103.3303-103.0648-102.7480 -68.8546 -68.5118
   -68.4372 -68.4326 -64.1222 -64.0713 -63.9914 -63.9294 -63.9108 -63.8923
   -63.8401 -63.7949 -63.7599 -63.7345 -63.6402 -63.6154 -63.5540 -63.5443
   -63.3482 -63.2637 -63.1332 -63.1161 -35.3844 -35.3228 -35.2476 -35.0400
   -35.0239 -34.9974 -34.9685 -34.9588 -34.9546 -34.9363 -34.9131 -34.9106
   -11.7499 -11.6023 -11.5697 -11.4904 -11.4073 -11.2900 -11.1941 -11.1011
   -11.0757 -10.9930  -6.1975  -6.1366  -6.0399  -5.9955  -5.4526  -5.1820
    -5.1211  -5.0600  -4.8697  -4.7733  -4.5122  -4.4032  -4.2392  -4.0335
    -3.9195  -3.8293  -3.7394  -3.7025  -3.6643  -3.6559  -3.5863  -3.5242
    -3.4321  -3.3621  -3.2592  -3.2173  -3.1906  -2.9603  -2.9007  -2.8288
    -2.7729  -2.6567  -2.6126  -2.4990  -2.3967  -2.3203  -2.3079  -2.2178
    -2.1799  -2.1056  -2.0390  -1.9923  -1.8981  -1.8297  -1.7710  -1.6880
    -1.5629  -1.4692  -1.4350  -1.3739  -1.2924  -1.2691  -1.1937  -1.1593
    -1.0000  -0.9375  -0.9029  -0.8115  -0.6836  -0.5852   0.4032   0.4933
     0.8359   0.9166   1.0580   1.1569   1.3113   1.5951   1.6726   1.8970
     1.9194   2.0014   2.1216   2.2610   2.2843   2.4822   2.8796   2.9147
     3.1146   3.2025   3.4301   3.4883

          k = 0.0000-2.6109 0.0000 ( 85648 PWs)   bands (ev):

  -103.5731-103.5129-103.3538-103.3305-103.0648-102.7480 -68.8543 -68.5115
   -68.4369 -68.4323 -64.1222 -64.0714 -63.9907 -63.9319 -63.9108 -63.8924
   -63.8379 -63.7955 -63.7576 -63.7387 -63.6374 -63.6167 -63.5540 -63.5443
   -63.3484 -63.2638 -63.1333 -63.1162 -35.3834 -35.3333 -35.2460 -35.0506
   -35.0230 -34.9959 -34.9790 -34.9694 -34.9538 -34.9353 -34.9116 -34.9091
   -11.4881 -11.4745 -11.3882 -11.3032 -11.2763 -11.2407 -11.1077 -10.9953
   -10.9817 -10.9342  -6.4697  -6.4280  -6.3204  -6.2963  -5.7062  -5.3929
    -5.2161  -5.0793  -5.0049  -4.9843  -4.2473  -4.1859  -4.1356  -4.0324
    -3.9426  -3.8484  -3.6602  -3.6302  -3.6193  -3.5862  -3.5359  -3.4921
    -3.3210  -3.3118  -3.2768  -3.2013  -3.0681  -3.0493  -2.9805  -2.9555
    -2.6906  -2.6452  -2.5210  -2.4545  -2.3991  -2.3411  -2.3111  -2.2200
    -2.1501  -2.1201  -2.0450  -2.0231  -2.0056  -1.8945  -1.8417  -1.7862
    -1.5836  -1.4929  -1.3900  -1.3682  -1.3222  -1.2958  -1.2317  -1.2010
    -1.0451  -1.0133  -0.9678  -0.9502  -0.7577  -0.6632   0.3503   0.4189
     0.8860   0.9592   1.0590   1.1651   1.3173   1.4007   1.7510   1.8427
     2.0729   2.2134   2.2464   2.3253   2.5648   2.6788   2.9168   2.9492
     3.1220   3.1872   3.2591   3.3791

          k =-0.5000 0.0000 0.0000 ( 85498 PWs)   bands (ev):

  -103.5740-103.5121-103.3559-103.3285-103.0648-102.7481 -68.8573 -68.5146
   -68.4400 -68.4354 -64.1220 -64.0699 -63.9966 -63.9111 -63.8995 -63.8911
   -63.8665 -63.7910 -63.7692 -63.6982 -63.6702 -63.6096 -63.5540 -63.5443
   -63.3463 -63.2638 -63.1325 -63.1149 -35.3935 -35.2624 -35.2224 -35.0337
   -35.0132 -34.9663 -34.9464 -34.9360 -34.9273 -34.9254 -34.8644 -34.8554
   -13.1185 -12.9545 -12.5401 -12.3962 -12.2303 -12.0813 -11.9769 -11.7898
   -11.7465 -11.6826  -6.3229  -6.1728  -5.8856  -5.8377  -5.6182  -5.4286
    -5.2121  -4.9830  -4.7527  -4.5816  -4.0644  -4.0045  -3.9368  -3.8402
    -3.7506  -3.7078  -3.5798  -3.5465  -3.4474  -3.2999  -3.2784  -3.1262
    -2.8075  -2.7505  -2.6929  -2.6610  -2.5197  -2.4288  -2.3544  -2.3242
    -2.2487  -2.1583  -2.0984  -2.0410  -2.0169  -1.9722  -1.9079  -1.8709
    -1.8085  -1.6932  -1.6527  -1.5208  -1.4706  -1.3691  -1.2792  -1.2018
    -1.1020  -1.0514  -1.0287  -0.8894  -0.8420  -0.7834  -0.6925  -0.6452
    -0.5766  -0.5580  -0.4952  -0.4016  -0.0916   0.0422   0.1633   0.5932
     0.7141   0.9179   1.1478   1.1897   1.2640   1.3304   1.3950   1.4275
     1.7492   2.0250   2.0707   2.3196   2.5216   2.6228   2.9604   3.3040
     3.3764   3.5024   3.5592   3.6513

          k =-0.5000 0.5222 0.0000 ( 85486 PWs)   bands (ev):

  -103.5740-103.5121-103.3557-103.3287-103.0648-102.7481 -68.8570 -68.5143
   -68.4397 -68.4351 -64.1220 -64.0700 -63.9961 -63.9110 -63.9041 -63.8912
   -63.8623 -63.7913 -63.7684 -63.7036 -63.6653 -63.6100 -63.5540 -63.5443
   -63.3465 -63.2638 -63.1326 -63.1150 -35.3925 -35.2609 -35.2330 -35.0327
   -35.0116 -34.9651 -34.9470 -34.9453 -34.9258 -34.9239 -34.8753 -34.8663
   -13.0116 -12.8479 -12.4468 -12.3077 -12.1664 -12.0133 -11.9058 -11.7165
   -11.6864 -11.6308  -6.2223  -6.0729  -5.7720  -5.7270  -5.5122  -5.3122
    -5.1113  -4.8896  -4.7016  -4.5340  -4.1100  -4.0657  -3.9570  -3.9052
    -3.7595  -3.7449  -3.6584  -3.5370  -3.4332  -3.4086  -3.2194  -3.0876
    -2.9354  -2.8766  -2.7926  -2.7678  -2.7201  -2.5969  -2.4330  -2.3813
    -2.2682  -2.2115  -2.1947  -2.1211  -2.0478  -1.9991  -1.9699  -1.9128
    -1.8034  -1.7914  -1.6772  -1.5609  -1.5180  -1.4440  -1.3943  -1.3512
    -1.2776  -1.1782  -1.0843  -0.9988  -0.9765  -0.9092  -0.8070  -0.7865
    -0.6776  -0.6173  -0.4894  -0.4204  -0.0585   0.1146   0.1829   0.4047
     0.8017   0.8341   0.9981   1.1259   1.1750   1.2482   1.3501   1.3920
     1.5821   1.8671   2.0705   2.1625   2.2888   2.4196   2.8834   2.9995
     3.0646   3.1920   3.2902   3.5711

          k =-0.5000 1.0444 0.0000 ( 85504 PWs)   bands (ev):

  -103.5737-103.5123-103.3552-103.3292-103.0648-102.7481 -68.8563 -68.5135
   -68.4390 -68.4343 -64.1221 -64.0705 -63.9947 -63.9132 -63.9110 -63.8916
   -63.8540 -63.7923 -63.7665 -63.7141 -63.6562 -63.6112 -63.5540 -63.5443
   -63.3469 -63.2638 -63.1327 -63.1153 -35.3900 -35.2626 -35.2551 -35.0301
   -35.0077 -34.9754 -34.9622 -34.9426 -34.9221 -34.9202 -34.9038 -34.8946
   -12.7048 -12.5423 -12.1865 -12.0691 -11.9832 -11.8169 -11.7115 -11.5349
   -11.4958 -11.4888  -5.9607  -5.8110  -5.4815  -5.4530  -5.2256  -5.0185
    -4.8967  -4.7879  -4.5723  -4.5248  -4.2739  -4.2322  -4.1572  -4.1162
    -3.8658  -3.7806  -3.7548  -3.6747  -3.6000  -3.4786  -3.4584  -3.3351
    -3.2444  -3.1318  -3.0318  -2.9765  -2.8677  -2.7564  -2.6414  -2.5566
    -2.5347  -2.4865  -2.4138  -2.3681  -2.2761  -2.1899  -2.1588  -2.0440
    -1.9512  -1.9227  -1.8757  -1.7102  -1.6565  -1.5829  -1.5449  -1.4490
    -1.4347  -1.2931  -1.2635  -1.2345  -1.1424  -1.0245  -0.9636  -0.9284
    -0.8537  -0.8024  -0.5156  -0.4388  -0.3325  -0.1718   0.4353   0.5893
     0.7829   0.8940   0.9584   1.0556   1.0965   1.1926   1.3367   1.3867
     1.4354   1.6220   1.8770   1.9795   2.1980   2.3777   2.5048   2.6499
     2.7028   2.8614   3.6019   3.9035

          k =-0.5000 1.5666 0.0000 ( 85570 PWs)   bands (ev):

  -103.5734-103.5126-103.3546-103.3298-103.0648-102.7480 -68.8554 -68.5125
   -68.4380 -68.4334 -64.1222 -64.0710 -63.9930 -63.9226 -63.9109 -63.8920
   -63.8458 -63.7936 -63.7636 -63.7252 -63.6471 -63.6131 -63.5540 -63.5443
   -63.3476 -63.2638 -63.1330 -63.1157 -35.3869 -35.2955 -35.2515 -35.0269
   -35.0125 -35.0006 -34.9587 -34.9401 -34.9387 -34.9303 -34.9168 -34.9143
   -12.2461 -12.0881 -11.8385 -11.7686 -11.7032 -11.5189 -11.4572 -11.3059
   -11.2911 -11.2154  -5.7728  -5.6302  -5.4482  -5.3364  -5.2082  -5.1126
    -4.9966  -4.8680  -4.7350  -4.5520  -4.5170  -4.2951  -4.2499  -4.0982
    -4.0605  -4.0095  -3.9470  -3.9118  -3.7777  -3.6993  -3.6131  -3.5217
    -3.3379  -3.2671  -3.1967  -3.0911  -3.0448  -2.9339  -2.9152  -2.7807
    -2.6715  -2.6411  -2.5772  -2.5498  -2.4657  -2.3114  -2.2358  -2.1563
    -2.0965  -2.0494  -1.9721  -1.9223  -1.7416  -1.6639  -1.6151  -1.5838
    -1.4782  -1.4143  -1.3768  -1.3047  -1.2860  -1.1745  -1.0883  -1.0544
    -0.9739  -0.8721  -0.7170  -0.6342  -0.5470  -0.4033   0.5720   0.6410
     0.8392   0.9332   1.0815   1.1166   1.2575   1.3348   1.3926   1.4679
     1.6292   1.7524   1.8615   1.9445   2.2336   2.4373   2.6852   2.7584
     2.8846   2.9698   3.6747   3.8587

          k =-0.5000 2.0888 0.0000 ( 85686 PWs)   bands (ev):

  -103.5732-103.5128-103.3540-103.3303-103.0648-102.7480 -68.8546 -68.5118
   -68.4372 -68.4326 -64.1223 -64.0713 -63.9914 -63.9294 -63.9109 -63.8923
   -63.8401 -63.7950 -63.7599 -63.7345 -63.6403 -63.6155 -63.5541 -63.5443
   -63.3482 -63.2638 -63.1332 -63.1161 -35.3844 -35.3228 -35.2476 -35.0400
   -35.0239 -34.9974 -34.9685 -34.9588 -34.9546 -34.9363 -34.9131 -34.9106
   -11.7461 -11.6134 -11.5675 -11.4899 -11.4056 -11.2619 -11.2242 -11.0913
   -11.0826 -10.9909  -6.2134  -6.1571  -6.0065  -5.9695  -5.4708  -5.1957
    -5.1491  -5.0482  -4.8618  -4.7421  -4.5375  -4.4023  -4.2056  -4.0373
    -3.9473  -3.8758  -3.7630  -3.7247  -3.6610  -3.6405  -3.5443  -3.5094
    -3.3816  -3.3480  -3.2597  -3.1979  -3.1479  -3.0202  -2.9397  -2.8897
    -2.6892  -2.6363  -2.5486  -2.5104  -2.4755  -2.3409  -2.3188  -2.2186
    -2.1702  -2.1389  -2.0500  -2.0190  -1.8425  -1.8246  -1.7366  -1.6930
    -1.5747  -1.4623  -1.4374  -1.3793  -1.3347  -1.2584  -1.1575  -1.0959
    -1.0761  -1.0061  -0.8491  -0.8126  -0.6704  -0.6046   0.4392   0.4606
     0.8796   1.0097   1.0862   1.1917   1.2721   1.4265   1.7201   1.8237
     1.9703   2.0459   2.0982   2.1931   2.2857   2.4586   2.9077   2.9948
     3.0735   3.1691   3.3762   3.5012

          k =-0.5000-2.6109 0.0000 ( 85704 PWs)   bands (ev):

  -103.5731-103.5129-103.3538-103.3305-103.0648-102.7480 -68.8543 -68.5115
   -68.4369 -68.4323 -64.1223 -64.0715 -63.9907 -63.9319 -63.9109 -63.8925
   -63.8380 -63.7955 -63.7576 -63.7387 -63.6374 -63.6167 -63.5540 -63.5444
   -63.3484 -63.2638 -63.1333 -63.1163 -35.3834 -35.3333 -35.2460 -35.0506
   -35.0230 -34.9959 -34.9790 -34.9694 -34.9538 -34.9353 -34.9116 -34.9091
   -11.4880 -11.4745 -11.3883 -11.3040 -11.2753 -11.2391 -11.1107 -10.9901
   -10.9872 -10.9323  -6.4921  -6.4543  -6.2856  -6.2659  -5.7166  -5.3866
    -5.2364  -5.0691  -4.9990  -4.9977  -4.2668  -4.1785  -4.1506  -3.9771
    -3.9179  -3.8300  -3.7456  -3.6259  -3.6190  -3.6157  -3.5347  -3.4913
    -3.4170  -3.3222  -3.2274  -3.1907  -3.0264  -2.9884  -2.9716  -2.8756
    -2.6948  -2.6310  -2.5215  -2.4903  -2.4084  -2.3799  -2.3295  -2.2316
    -2.1707  -2.1463  -2.0355  -2.0217  -2.0035  -1.8667  -1.8281  -1.7645
    -1.5954  -1.5018  -1.4158  -1.3795  -1.3333  -1.2824  -1.2080  -1.1872
    -1.1015  -1.0274  -0.9538  -0.9352  -0.7454  -0.6569   0.3574   0.4191
     0.9153   1.0155   1.0617   1.2224   1.2420   1.2982   1.7875   1.9324
     1.9929   2.0935   2.3095   2.3940   2.5442   2.6255   2.9305   2.9793
     3.0374   3.1495   3.4288   3.4910

     the Fermi energy is     0.1270 ev

!    total energy              =   -9109.77837671 Ry
     total all-electron energy =     -9109.778377 Ry
     estimated scf accuracy    <          3.3E-09 Ry
     smearing contrib. (-TS)   =      -0.00020790 Ry
     internal energy E=F+TS    =   -9109.77816882 Ry

     The total energy is F=E-TS. E is the sum of the following terms:
     one-electron contribution =  -16476.02541659 Ry
     hartree contribution      =    8096.66545505 Ry
     xc contribution           =    -365.18357935 Ry
     ewald contribution        =    5902.48133245 Ry
     one-center paw contrib.   =   -6267.71596039 Ry

     convergence has been achieved in  21 iterations

     negative rho (up, down):  6.531E-02 0.000E+00

     Forces acting on atoms (cartesian axes, Ry/au):

     atom    1 type  1   force =     0.04025023    0.01564567   -0.01381759
     atom    2 type  1   force =     0.00304077   -0.01638474    0.00618339
     atom    3 type  1   force =    -0.02098518    0.01674983   -0.00590376
     atom    4 type  1   force =    -0.00942544   -0.01653332    0.00851788
     atom    5 type  2   force =     0.00504267    0.01776924   -0.00456604
     atom    6 type  2   force =    -0.00646393   -0.01797061    0.00516326
     atom    7 type  2   force =     0.00356443    0.01778744   -0.00615351
     atom    8 type  2   force =     0.01653535   -0.01740235    0.00325258
     atom    9 type  2   force =     0.00202182    0.01106711   -0.00777572
     atom   10 type  2   force =    -0.01954424   -0.01079608    0.00609235
     atom   11 type  3   force =     0.01783356   -0.01210802   -0.01818513
     atom   12 type  3   force =     0.00297836    0.01226015    0.01862378
     atom   13 type  3   force =     0.00055867    0.00838290   -0.01328858
     atom   14 type  3   force =    -0.01057669   -0.00798020    0.01558369
     atom   15 type  3   force =    -0.00320191   -0.01256869   -0.01729828
     atom   16 type  3   force =    -0.00365524    0.01224702    0.01664220
     atom   17 type  3   force =    -0.00009532    0.00864863   -0.01370255
     atom   18 type  3   force =     0.02728783   -0.00912391   -0.00534271
     atom   19 type  3   force =    -0.04590359    0.01071156    0.01048942
     atom   20 type  3   force =     0.00073784   -0.01040163    0.01548533

     Total force =     0.112545     Total SCF correction =     0.000354


     Computing stress (Cartesian axis) and pressure


     negative rho (up, down):  6.531E-02 0.000E+00
          total   stress  (Ry/bohr**3)                   (kbar)     P=        3.71
  -0.00001962   0.00000007   0.00001310           -2.89        0.01        1.93
   0.00000007   0.00009176  -0.00001185            0.01       13.50       -1.74
   0.00001310  -0.00001185   0.00000361            1.93       -1.74        0.53

     Energy error            =      2.0E-02 Ry
     Gradient error          =      4.6E-02 Ry/Bohr

     number of scf cycles    =   2
     number of bfgs steps    =   1

     energy             old  =   -9109.7582144801 Ry
     energy             new  =   -9109.7783767142 Ry

     CASE: energy            _new < energy            _old

     new trust radius        =       0.0603358862 bohr
     new conv_thr            =       0.0000000046 Ry


ATOMIC_POSITIONS (angstrom)
Ta           15.4443055293        0.9381309887       12.4287515783
Ta            6.5765103690        2.7194829125       12.6020694052
Ta            2.2365571605        0.9412038478       12.4343154722
Ta           11.0694798825        2.7190959494       12.6056173502
Ni           12.8686526154        0.9445748270       11.7554587255
Ni            4.0360070371        2.7148968813       13.2812979972
Ni            4.7993224906        0.9442805298       11.7526773208
Ni           13.6348085761        2.7160918352       13.2794328496
Ni            8.8310599722        0.9303687972       12.3575758765
Ni           -0.0154728715        2.7305291772       12.6734549980
Te           14.2355444631        2.7254833487       10.5081866347
Te            5.3973713564        0.9343902689       14.5264958855
Te           10.5945212337        0.9273843932       10.4986010508
Te            1.7613984213        2.7328817676       14.5408610514
Te            3.4400467090        2.7246378389       10.5098957764
Te           12.2577549208        0.9344880549       14.5252918964
Te            7.0621164616        0.9277417881       10.4981793210
Te           15.9149405217        2.7319737632       14.5114042861
Te           -0.0467699318        0.9290101525       10.8501353079
Te            8.8304074464        2.7302853319       14.2185482161



     Writing config-only to output data dir /ddn/data/physics/eamoujaes/2D-Ta2Ni3Te5/ELASTIC/C12/OUT/ta2ni3te5.save/
     NEW-OLD atomic charge density approx. for the potential

     negative rho (up, down):  6.490E-02 0.000E+00

     total cpu time spent up to now is     1095.2 secs

     Self-consistent Calculation

     iteration #  1     ecut=    60.00 Ry     beta= 0.20
     Davidson diagonalization with overlap
     ethr =  1.00E-06,  avg # of iterations =  8.8

     negative rho (up, down):  6.496E-02 0.000E+00

     total cpu time spent up to now is     1139.6 secs

     total energy              =   -9109.78878102 Ry
     estimated scf accuracy    <       0.01081791 Ry

     iteration #  2     ecut=    60.00 Ry     beta= 0.20
     Davidson diagonalization with overlap
     ethr =  4.92E-06,  avg # of iterations =  7.0

     negative rho (up, down):  6.499E-02 0.000E+00

     total cpu time spent up to now is     1160.0 secs

     total energy              =   -9109.78936922 Ry
     estimated scf accuracy    <       0.05712889 Ry

     iteration #  3     ecut=    60.00 Ry     beta= 0.20
     Davidson diagonalization with overlap
     ethr =  4.92E-06,  avg # of iterations =  3.6

     negative rho (up, down):  6.500E-02 0.000E+00

     total cpu time spent up to now is     1177.2 secs

     total energy              =   -9109.79209567 Ry
     estimated scf accuracy    <       0.01053396 Ry

     iteration #  4     ecut=    60.00 Ry     beta= 0.20
     Davidson diagonalization with overlap
     ethr =  4.79E-06,  avg # of iterations =  1.0

     negative rho (up, down):  6.503E-02 0.000E+00

     total cpu time spent up to now is     1192.1 secs

     total energy              =   -9109.79246071 Ry
     estimated scf accuracy    <       0.00095285 Ry

     iteration #  5     ecut=    60.00 Ry     beta= 0.20
     Davidson diagonalization with overlap
     ethr =  4.33E-07,  avg # of iterations =  2.0

     negative rho (up, down):  6.508E-02 0.000E+00

     total cpu time spent up to now is     1208.3 secs

     total energy              =   -9109.79237650 Ry
     estimated scf accuracy    <       0.00234441 Ry

     iteration #  6     ecut=    60.00 Ry     beta= 0.20
     Davidson diagonalization with overlap
     ethr =  4.33E-07,  avg # of iterations =  1.0

     negative rho (up, down):  6.511E-02 0.000E+00

     total cpu time spent up to now is     1223.2 secs

     total energy              =   -9109.79243737 Ry
     estimated scf accuracy    <       0.00042750 Ry

     iteration #  7     ecut=    60.00 Ry     beta= 0.20
     Davidson diagonalization with overlap
     ethr =  1.94E-07,  avg # of iterations =  1.0

     negative rho (up, down):  6.514E-02 0.000E+00

     total cpu time spent up to now is     1238.0 secs

     total energy              =   -9109.79244913 Ry
     estimated scf accuracy    <       0.00011222 Ry

     iteration #  8     ecut=    60.00 Ry     beta= 0.20
     Davidson diagonalization with overlap
     ethr =  5.10E-08,  avg # of iterations =  2.0

     negative rho (up, down):  6.517E-02 0.000E+00

     total cpu time spent up to now is     1264.1 secs

     total energy              =   -9109.79245543 Ry
     estimated scf accuracy    <       0.00008728 Ry

     iteration #  9     ecut=    60.00 Ry     beta= 0.20
     Davidson diagonalization with overlap
     ethr =  3.97E-08,  avg # of iterations =  1.1

     negative rho (up, down):  6.519E-02 0.000E+00

     total cpu time spent up to now is     1279.4 secs

     total energy              =   -9109.79246286 Ry
     estimated scf accuracy    <       0.00002626 Ry

     iteration # 10     ecut=    60.00 Ry     beta= 0.20
     Davidson diagonalization with overlap
     ethr =  1.19E-08,  avg # of iterations =  2.0

     negative rho (up, down):  6.521E-02 0.000E+00

     total cpu time spent up to now is     1295.2 secs

     total energy              =   -9109.79246592 Ry
     estimated scf accuracy    <       0.00001783 Ry

     iteration # 11     ecut=    60.00 Ry     beta= 0.20
     Davidson diagonalization with overlap
     ethr =  8.11E-09,  avg # of iterations =  1.0

     negative rho (up, down):  6.522E-02 0.000E+00

     total cpu time spent up to now is     1310.0 secs

     total energy              =   -9109.79246874 Ry
     estimated scf accuracy    <       0.00000489 Ry

     iteration # 12     ecut=    60.00 Ry     beta= 0.20
     Davidson diagonalization with overlap
     ethr =  2.22E-09,  avg # of iterations =  2.0

     negative rho (up, down):  6.522E-02 0.000E+00

     total cpu time spent up to now is     1327.4 secs

     total energy              =   -9109.79246945 Ry
     estimated scf accuracy    <       0.00000335 Ry

     iteration # 13     ecut=    60.00 Ry     beta= 0.20
     Davidson diagonalization with overlap
     ethr =  1.52E-09,  avg # of iterations =  1.0

     negative rho (up, down):  6.522E-02 0.000E+00

     total cpu time spent up to now is     1342.1 secs

     total energy              =   -9109.79247001 Ry
     estimated scf accuracy    <       0.00000072 Ry

     iteration # 14     ecut=    60.00 Ry     beta= 0.20
     Davidson diagonalization with overlap
     ethr =  3.26E-10,  avg # of iterations =  2.0

     negative rho (up, down):  6.522E-02 0.000E+00

     total cpu time spent up to now is     1365.5 secs

     total energy              =   -9109.79247034 Ry
     estimated scf accuracy    <       0.00000086 Ry

     iteration # 15     ecut=    60.00 Ry     beta= 0.20
     Davidson diagonalization with overlap
     ethr =  3.26E-10,  avg # of iterations =  1.2

     negative rho (up, down):  6.523E-02 0.000E+00

     total cpu time spent up to now is     1380.7 secs

     total energy              =   -9109.79247046 Ry
     estimated scf accuracy    <       0.00000039 Ry

     iteration # 16     ecut=    60.00 Ry     beta= 0.20
     Davidson diagonalization with overlap
     ethr =  1.75E-10,  avg # of iterations =  1.3

     negative rho (up, down):  6.522E-02 0.000E+00

     total cpu time spent up to now is     1407.8 secs

     total energy              =   -9109.79247046 Ry
     estimated scf accuracy    <       0.00000049 Ry

     iteration # 17     ecut=    60.00 Ry     beta= 0.20
     Davidson diagonalization with overlap
     ethr =  1.75E-10,  avg # of iterations =  1.0

     negative rho (up, down):  6.522E-02 0.000E+00

     total cpu time spent up to now is     1422.6 secs

     total energy              =   -9109.79247049 Ry
     estimated scf accuracy    <       0.00000004 Ry

     iteration # 18     ecut=    60.00 Ry     beta= 0.20
     Davidson diagonalization with overlap
     ethr =  1.75E-11,  avg # of iterations =  2.2

     negative rho (up, down):  6.522E-02 0.000E+00

     total cpu time spent up to now is     1439.1 secs

     total energy              =   -9109.79247050 Ry
     estimated scf accuracy    <       0.00000003 Ry

     iteration # 19     ecut=    60.00 Ry     beta= 0.20
     Davidson diagonalization with overlap
     ethr =  1.19E-11,  avg # of iterations =  1.9

     negative rho (up, down):  6.522E-02 0.000E+00

     total cpu time spent up to now is     1455.0 secs

     total energy              =   -9109.79247050 Ry
     estimated scf accuracy    <       0.00000001 Ry

     iteration # 20     ecut=    60.00 Ry     beta= 0.20
     Davidson diagonalization with overlap
     ethr =  5.21E-12,  avg # of iterations =  2.0

     negative rho (up, down):  6.522E-02 0.000E+00

     total cpu time spent up to now is     1470.7 secs

     End of self-consistent calculation

          k = 0.0000 0.0000 0.0000 ( 85593 PWs)   bands (ev):

  -103.5194-103.4648-103.3425-103.3154-103.0579-102.7707 -68.8548 -68.5244
   -68.4699 -68.4530 -64.0679 -64.0206 -63.9383 -63.8950 -63.8755 -63.8488
   -63.8147 -63.7534 -63.7453 -63.6839 -63.6581 -63.5993 -63.5471 -63.5400
   -63.3353 -63.2868 -63.1542 -63.1363 -35.3817 -35.2575 -35.2157 -35.0368
   -35.0183 -34.9773 -34.9746 -34.9517 -34.9385 -34.9347 -34.8777 -34.8707
   -13.0906 -12.8649 -12.5950 -12.3225 -12.2151 -11.9871 -11.9570 -11.8837
   -11.7615 -11.6297  -6.3101  -6.1163  -5.8654  -5.7258  -5.6163  -5.4978
    -5.3298  -4.8166  -4.7371  -4.3118  -4.2363  -3.9715  -3.9077  -3.8781
    -3.7574  -3.6534  -3.5462  -3.5278  -3.3536  -3.1999  -3.1533  -3.0806
    -2.7447  -2.7113  -2.6845  -2.6161  -2.5116  -2.4060  -2.3592  -2.3210
    -2.2708  -2.1830  -2.0806  -2.0177  -1.9703  -1.9606  -1.8695  -1.8508
    -1.7975  -1.6969  -1.6436  -1.5391  -1.4402  -1.3346  -1.2806  -1.2071
    -1.1211  -1.0709  -1.0315  -0.9098  -0.7942  -0.7473  -0.6684  -0.6146
    -0.5612  -0.5181  -0.4958  -0.4275  -0.0887   0.0566   0.1294   0.5637
     0.6241   1.0631   1.1372   1.1915   1.2644   1.3702   1.3804   1.4516
     1.7521   1.8650   2.0757   2.4259   2.4718   2.6443   2.9151   3.1907
     3.4587   3.5405   3.5610   3.6017

          k = 0.0000 0.5222 0.0000 ( 85499 PWs)   bands (ev):

  -103.5193-103.4649-103.3423-103.3156-103.0579-102.7707 -68.8545 -68.5241
   -68.4696 -68.4527 -64.0679 -64.0207 -63.9375 -63.8949 -63.8755 -63.8531
   -63.8106 -63.7526 -63.7456 -63.6893 -63.6531 -63.5996 -63.5471 -63.5400
   -63.3353 -63.2867 -63.1541 -63.1364 -35.3807 -35.2561 -35.2263 -35.0357
   -35.0167 -34.9762 -34.9735 -34.9502 -34.9494 -34.9333 -34.8885 -34.8816
   -12.9836 -12.7597 -12.4980 -12.2420 -12.1484 -11.9126 -11.8881 -11.8186
   -11.6930 -11.5780  -6.2083  -6.0171  -5.7509  -5.6133  -5.5184  -5.3789
    -5.2298  -4.7277  -4.6566  -4.2839  -4.2004  -4.0155  -3.9621  -3.9221
    -3.8429  -3.7213  -3.6215  -3.5056  -3.3301  -3.2572  -3.1877  -2.9976
    -2.8707  -2.8543  -2.7880  -2.7395  -2.6915  -2.5974  -2.4169  -2.3477
    -2.2996  -2.2462  -2.1771  -2.0682  -2.0089  -1.9745  -1.9349  -1.8945
    -1.8531  -1.7705  -1.6079  -1.5830  -1.4974  -1.4453  -1.3795  -1.3200
    -1.2773  -1.1889  -1.0792  -1.0492  -0.9654  -0.8610  -0.8458  -0.7276
    -0.6809  -0.6102  -0.4553  -0.4222  -0.0577   0.0856   0.1436   0.4449
     0.6683   0.8499   1.0186   1.1173   1.2070   1.2589   1.3009   1.4594
     1.6302   1.8519   2.0640   2.1488   2.2590   2.4858   2.8071   3.0061
     3.0806   3.1601   3.2539   3.4463

          k = 0.0000 1.0444 0.0000 ( 85476 PWs)   bands (ev):

  -103.5190-103.4651-103.3419-103.3160-103.0578-102.7706 -68.8538 -68.5234
   -68.4688 -68.4519 -64.0680 -64.0210 -63.9361 -63.8949 -63.8759 -63.8620
   -63.8024 -63.7508 -63.7467 -63.6995 -63.6440 -63.6008 -63.5471 -63.5400
   -63.3356 -63.2867 -63.1542 -63.1367 -35.3782 -35.2546 -35.2515 -35.0331
   -35.0127 -34.9778 -34.9733 -34.9707 -34.9463 -34.9296 -34.9167 -34.9100
   -12.6761 -12.4587 -12.2232 -12.0319 -11.9539 -11.7050 -11.7016 -11.6328
   -11.4983 -11.4369  -5.9454  -5.7549  -5.4562  -5.3706  -5.2322  -5.0764
    -4.9612  -4.6475  -4.5020  -4.3615  -4.2127  -4.1605  -4.1175  -4.0606
    -4.0154  -3.9208  -3.7729  -3.5883  -3.5485  -3.3867  -3.3758  -3.2785
    -3.2415  -3.0895  -3.0197  -2.8657  -2.8035  -2.7457  -2.6927  -2.5726
    -2.4803  -2.4512  -2.3934  -2.3691  -2.2418  -2.1718  -2.1125  -2.0462
    -1.9691  -1.9159  -1.8223  -1.6887  -1.6631  -1.6038  -1.5128  -1.4842
    -1.3989  -1.3524  -1.2210  -1.1683  -1.0579  -1.0292  -0.9906  -0.8979
    -0.8538  -0.8016  -0.5660  -0.4654  -0.3402  -0.1912   0.3919   0.6794
     0.7302   0.8443   0.8996   1.0363   1.0744   1.1758   1.2638   1.4202
     1.6264   1.7284   1.8038   2.0129   2.1847   2.3199   2.4622   2.6053
     2.7156   2.8946   3.5610   3.8346

          k = 0.0000 1.5666 0.0000 ( 85618 PWs)   bands (ev):

  -103.5187-103.4654-103.3413-103.3166-103.0578-102.7706 -68.8529 -68.5224
   -68.4679 -68.4510 -64.0681 -64.0214 -63.9345 -63.8948 -63.8763 -63.8714
   -63.7943 -63.7483 -63.7482 -63.7103 -63.6351 -63.6029 -63.5471 -63.5400
   -63.3365 -63.2867 -63.1543 -63.1374 -35.3751 -35.2879 -35.2472 -35.0299
   -35.0137 -35.0066 -34.9699 -34.9673 -34.9518 -34.9452 -34.9408 -34.9248
   -12.2153 -12.0144 -11.8296 -11.7682 -11.6686 -11.4793 -11.4091 -11.3467
[...]
   -63.4656 -63.4652 -63.2132 -63.2130 -35.1117 -35.1098 -35.1084 -35.1071
   -35.0824 -35.0798 -35.0788 -35.0779 -35.0552 -35.0529 -35.0527 -35.0516
   -12.5679 -12.3380 -12.2558 -11.9172 -11.8983 -11.7214 -11.6904 -11.6503
   -11.5792 -11.4357  -5.8349  -5.6645  -5.4085  -5.2858  -5.1722  -5.0723
    -5.0682  -4.4837  -4.4741  -4.2309  -4.0879  -4.0501  -4.0283  -3.9393
    -3.9158  -3.8534  -3.7632  -3.5875  -3.4445  -3.2835  -3.2816  -3.1958
    -3.1407  -3.0918  -2.9569  -2.7979  -2.7463  -2.6846  -2.6344  -2.5242
    -2.4167  -2.3854  -2.3741  -2.3324  -2.1480  -2.1430  -2.0866  -1.9859
    -1.9682  -1.8388  -1.8093  -1.7086  -1.6420  -1.5489  -1.4736  -1.4624
    -1.2830  -1.2049  -1.1764  -1.0735  -1.0669  -1.0633  -1.0467  -0.9393
    -0.9337  -0.7650  -0.5598  -0.4557  -0.3036  -0.2887   0.4430   0.6907
     0.7172   0.8425   0.8723   1.0247   1.0859   1.1328   1.1725   1.4622
     1.6457   1.6919   1.7840   2.0214   2.2795   2.3025   2.3167   2.5497
     2.6871   2.8589   3.8242   3.8923

          k = 0.0000 1.5666 0.0000 ( 85618 PWs)   bands (ev):

  -103.2810-103.2800-103.2726-103.2644-102.9670-102.9668 -68.6244 -68.6211
   -68.6210 -68.6204 -63.8417 -63.8398 -63.8354 -63.8269 -63.6858 -63.6830
   -63.6563 -63.6514 -63.5746 -63.5728 -63.5487 -63.5434 -63.4723 -63.4715
   -63.4656 -63.4653 -63.2140 -63.2138 -35.1083 -35.1065 -35.1049 -35.1039
   -35.0893 -35.0872 -35.0868 -35.0857 -35.0776 -35.0750 -35.0742 -35.0734
   -12.1078 -11.8979 -11.8527 -11.6690 -11.5924 -11.5030 -11.4236 -11.3405
   -11.3105 -11.2435  -5.6508  -5.4700  -5.3017  -5.2425  -5.0188  -4.9683
    -4.8350  -4.7549  -4.6917  -4.5213  -4.3447  -4.2741  -4.2660  -4.1760
    -4.0023  -3.9857  -3.8680  -3.8070  -3.6778  -3.5213  -3.5019  -3.4982
    -3.3857  -3.0871  -3.0610  -3.0340  -2.9555  -2.9372  -2.7993  -2.7318
    -2.6450  -2.6036  -2.5610  -2.4161  -2.3152  -2.2262  -2.1517  -2.0565
    -2.0458  -1.9841  -1.9296  -1.7819  -1.7214  -1.5618  -1.5250  -1.4856
    -1.4368  -1.3492  -1.3112  -1.2867  -1.1956  -1.1913  -1.1088  -1.0788
    -0.8586  -0.8433  -0.7431  -0.6400  -0.5469  -0.4452   0.5901   0.7092
     0.7884   0.8759   0.9675   1.1285   1.3262   1.3504   1.4391   1.4486
     1.7137   1.7401   1.7437   2.0444   2.1842   2.3745   2.4832   2.6707
     2.9534   2.9597   3.7221   3.7782

          k = 0.0000 2.0888 0.0000 ( 85618 PWs)   bands (ev):

  -103.2804-103.2783-103.2742-103.2651-102.9670-102.9668 -68.6236 -68.6203
   -68.6203 -68.6197 -63.8414 -63.8389 -63.8364 -63.8271 -63.6811 -63.6790
   -63.6659 -63.6604 -63.5661 -63.5655 -63.5530 -63.5466 -63.4722 -63.4714
   -63.4655 -63.4652 -63.2145 -63.2144 -35.1170 -35.1149 -35.1144 -35.1134
   -35.1051 -35.1036 -35.1017 -35.1011 -35.0738 -35.0712 -35.0705 -35.0697
   -11.5937 -11.4702 -11.4408 -11.3876 -11.3434 -11.3285 -11.1735 -11.1202
   -11.0693 -11.0374  -5.9806  -5.9625  -5.9305  -5.8976  -5.3157  -5.3065
    -4.9882  -4.9575  -4.8027  -4.6924  -4.3526  -4.3354  -4.1303  -3.9280
    -3.8400  -3.7849  -3.7551  -3.7535  -3.6491  -3.5866  -3.4633  -3.4405
    -3.3047  -3.2820  -3.2455  -3.2104  -3.0869  -2.9472  -2.8704  -2.8528
    -2.6399  -2.5962  -2.5890  -2.3478  -2.2810  -2.2047  -2.1953  -2.1255
    -2.0999  -2.0923  -2.0314  -1.8774  -1.7725  -1.7242  -1.6289  -1.5503
    -1.4663  -1.4276  -1.3517  -1.3161  -1.3103  -1.2340  -1.2201  -1.1005
    -0.9333  -0.9083  -0.8456  -0.8065  -0.6627  -0.6505   0.4404   0.5701
     0.8231   0.9990   1.0204   1.1736   1.3059   1.5287   1.6227   1.8882
     1.9105   2.0062   2.0691   2.2059   2.3035   2.3464   2.9022   2.9055
     3.0821   3.3309   3.3487   3.4062

          k = 0.0000-2.6109 0.0000 ( 85648 PWs)   bands (ev):

  -103.2801-103.2769-103.2757-103.2653-102.9670-102.9668 -68.6233 -68.6201
   -68.6200 -68.6194 -63.8414 -63.8382 -63.8371 -63.8272 -63.6760 -63.6756
   -63.6732 -63.6652 -63.5621 -63.5590 -63.5588 -63.5486 -63.4723 -63.4714
   -63.4655 -63.4652 -63.2147 -63.2146 -35.1274 -35.1252 -35.1247 -35.1237
   -35.1041 -35.1026 -35.1007 -35.1002 -35.0724 -35.0697 -35.0690 -35.0683
   -11.3193 -11.3186 -11.2245 -11.2220 -11.2029 -11.1995 -11.1415 -11.1375
   -10.9546 -10.9509  -6.2460  -6.2444  -6.2251  -6.2200  -5.5719  -5.5678
    -5.0598  -5.0581  -4.8980  -4.8933  -4.0494  -4.0471  -4.0080  -4.0065
    -3.8404  -3.8396  -3.5767  -3.5752  -3.5151  -3.5118  -3.4573  -3.4539
    -3.3992  -3.3973  -3.1688  -3.1677  -3.0029  -3.0011  -2.9683  -2.9648
    -2.5792  -2.5777  -2.4337  -2.4314  -2.2050  -2.1991  -2.1320  -2.1289
    -2.1173  -2.1162  -2.0155  -2.0094  -1.8147  -1.8120  -1.6859  -1.6803
    -1.4083  -1.4058  -1.3701  -1.3667  -1.2647  -1.2624  -1.1642  -1.1639
    -1.0161  -1.0157  -0.9332  -0.9327  -0.7092  -0.7074   0.4618   0.4628
     0.9291   0.9310   1.0918   1.0930   1.3654   1.3679   1.6805   1.6852
     2.1451   2.1508   2.2492   2.2514   2.5562   2.5577   2.9848   2.9863
     3.1224   3.1233   3.3514   3.3541

          k =-0.5000 0.0000 0.0000 ( 85498 PWs)   bands (ev):

  -103.2826-103.2825-103.2700-103.2630-102.9671-102.9668 -68.6264 -68.6231
   -68.6230 -68.6224 -63.8421 -63.8412 -63.8337 -63.8260 -63.6915 -63.6883
   -63.6328 -63.6278 -63.5952 -63.5934 -63.5434 -63.5388 -63.4723 -63.4715
   -63.4656 -63.4653 -63.2127 -63.2125 -35.1156 -35.1139 -35.1120 -35.1110
   -35.0876 -35.0852 -35.0837 -35.0829 -35.0168 -35.0145 -35.0143 -35.0132
   -12.9066 -12.9042 -12.3942 -12.3929 -12.1040 -12.1016 -11.9100 -11.9095
   -11.7120 -11.7098  -6.1233  -6.1210  -5.8153  -5.8115  -5.4728  -5.4715
    -5.0992  -5.0972  -4.5602  -4.5558  -3.9167  -3.9137  -3.6921  -3.6902
    -3.5435  -3.5418  -3.4032  -3.3994  -3.3625  -3.3579  -2.9391  -2.9347
    -2.7001  -2.6968  -2.5235  -2.5212  -2.3048  -2.3014  -2.2596  -2.2551
    -2.1188  -2.1163  -2.0817  -2.0814  -2.0210  -2.0200  -1.7646  -1.7644
    -1.7430  -1.7375  -1.7032  -1.7029  -1.3085  -1.3062  -1.1670  -1.1624
    -1.1060  -1.1053  -0.8810  -0.8760  -0.8324  -0.8301  -0.5445  -0.5416
    -0.5372  -0.5339  -0.4821  -0.4804  -0.0386  -0.0374   0.2817   0.2860
     0.7551   0.7605   1.1420   1.1439   1.2612   1.2678   1.2734   1.2752
     1.8992   1.8995   2.2240   2.2281   2.5295   2.5328   3.2861   3.2873
     3.5212   3.5232   3.5812   3.5834

          k =-0.5000 0.5222 0.0000 ( 85486 PWs)   bands (ev):

  -103.2823-103.2823-103.2703-103.2632-102.9671-102.9668 -68.6261 -68.6228
   -68.6227 -68.6221 -63.8420 -63.8409 -63.8338 -63.8261 -63.6908 -63.6876
   -63.6370 -63.6321 -63.5915 -63.5895 -63.5440 -63.5394 -63.4723 -63.4715
   -63.4655 -63.4652 -63.2128 -63.2127 -35.1145 -35.1128 -35.1109 -35.1100
   -35.0862 -35.0837 -35.0823 -35.0815 -35.0275 -35.0251 -35.0250 -35.0239
   -12.8012 -12.7988 -12.2998 -12.2985 -12.0418 -12.0394 -11.8359 -11.8354
   -11.6554 -11.6532  -6.0221  -6.0198  -5.6994  -5.6958  -5.3676  -5.3663
    -5.0017  -4.9996  -4.4954  -4.4910  -3.9551  -3.9515  -3.7226  -3.7217
    -3.5394  -3.5372  -3.4622  -3.4601  -3.4284  -3.4255  -2.9684  -2.9639
    -2.7476  -2.7447  -2.6491  -2.6473  -2.6163  -2.6133  -2.2451  -2.2416
    -2.1922  -2.1903  -2.0958  -2.0949  -1.9742  -1.9729  -1.9241  -1.9212
    -1.8059  -1.8044  -1.6958  -1.6938  -1.3605  -1.3571  -1.3125  -1.3111
    -1.1725  -1.1678  -0.9981  -0.9980  -0.9036  -0.8989  -0.8036  -0.8010
    -0.6783  -0.6768  -0.4343  -0.4325   0.0138   0.0163   0.2411   0.2432
     0.8056   0.8069   1.0093   1.0145   1.1468   1.1482   1.2501   1.2542
     1.7556   1.7586   2.1760   2.1791   2.2700   2.2730   2.9490   2.9505
     3.0852   3.0867   3.5706   3.5713

          k =-0.5000 1.0444 0.0000 ( 85504 PWs)   bands (ev):

  -103.2818-103.2814-103.2712-103.2637-102.9670-102.9668 -68.6253 -68.6220
   -68.6220 -68.6213 -63.8419 -63.8406 -63.8345 -63.8264 -63.6888 -63.6858
   -63.6459 -63.6412 -63.5835 -63.5814 -63.5457 -63.5409 -63.4723 -63.4715
   -63.4656 -63.4653 -63.2132 -63.2131 -35.1117 -35.1100 -35.1081 -35.1072
   -35.0824 -35.0799 -35.0787 -35.0779 -35.0552 -35.0529 -35.0527 -35.0516
   -12.4988 -12.4964 -12.0345 -12.0327 -11.8687 -11.8664 -11.6329 -11.6325
   -11.4965 -11.4945  -5.7594  -5.7572  -5.3981  -5.3954  -5.0871  -5.0858
    -4.7963  -4.7946  -4.3813  -4.3779  -4.1234  -4.1198  -3.9452  -3.9437
    -3.6782  -3.6768  -3.6020  -3.6015  -3.5710  -3.5684  -3.2835  -3.2786
    -3.0822  -3.0784  -2.9023  -2.8989  -2.7397  -2.7380  -2.5394  -2.5384
    -2.3769  -2.3756  -2.3705  -2.3688  -2.1504  -2.1474  -2.0241  -2.0210
    -1.9260  -1.9249  -1.7887  -1.7863  -1.5002  -1.4919  -1.4728  -1.4681
    -1.2890  -1.2855  -1.1854  -1.1805  -1.0811  -1.0809  -0.9181  -0.9164
    -0.8815  -0.8806  -0.4801  -0.4791  -0.2900  -0.2882   0.5506   0.5523
     0.8291   0.8304   1.0123   1.0138   1.0755   1.0780   1.2745   1.2759
     1.5341   1.5378   1.9431   1.9474   2.2213   2.2247   2.5643   2.5667
     2.7278   2.7300   3.9054   3.9061

          k =-0.5000 1.5666 0.0000 ( 85570 PWs)   bands (ev):

  -103.2810-103.2800-103.2725-103.2644-102.9670-102.9668 -68.6244 -68.6211
   -68.6210 -68.6204 -63.8417 -63.8398 -63.8354 -63.8268 -63.6858 -63.6830
   -63.6562 -63.6514 -63.5745 -63.5727 -63.5486 -63.5434 -63.4723 -63.4714
   -63.4656 -63.4653 -63.2139 -63.2138 -35.1082 -35.1066 -35.1048 -35.1040
   -35.0893 -35.0872 -35.0868 -35.0857 -35.0776 -35.0750 -35.0741 -35.0734
   -12.0473 -12.0448 -11.6619 -11.6590 -11.6276 -11.6248 -11.3728 -11.3725
   -11.2660 -11.2641  -5.5731  -5.5709  -5.2035  -5.2014  -5.0955  -5.0939
    -4.8272  -4.8256  -4.5437  -4.5416  -4.3463  -4.3451  -4.1099  -4.1086
    -3.9789  -3.9784  -3.8952  -3.8905  -3.6741  -3.6726  -3.4801  -3.4787
    -3.1341  -3.1290  -3.1057  -3.1031  -2.9705  -2.9700  -2.8271  -2.8252
    -2.5830  -2.5809  -2.4839  -2.4822  -2.2577  -2.2543  -2.1178  -2.1139
    -1.9994  -1.9967  -1.9055  -1.9024  -1.6048  -1.5985  -1.4959  -1.4895
    -1.4018  -1.3994  -1.2877  -1.2863  -1.2240  -1.2193  -1.0572  -1.0542
    -0.8990  -0.8972  -0.6861  -0.6849  -0.4894  -0.4887   0.6516   0.6524
     0.9854   0.9888   1.0339   1.0360   1.2596   1.2611   1.3809   1.3824
     1.6724   1.6753   1.8943   1.8989   2.2652   2.2704   2.6945   2.6972
     2.8637   2.8649   3.8481   3.8501

          k =-0.5000 2.0888 0.0000 ( 85686 PWs)   bands (ev):

  -103.2804-103.2783-103.2742-103.2651-102.9670-102.9668 -68.6236 -68.6203
   -68.6203 -68.6197 -63.8415 -63.8389 -63.8364 -63.8271 -63.6811 -63.6790
   -63.6660 -63.6605 -63.5662 -63.5655 -63.5531 -63.5467 -63.4723 -63.4715
   -63.4656 -63.4652 -63.2146 -63.2144 -35.1170 -35.1149 -35.1144 -35.1134
   -35.1051 -35.1036 -35.1016 -35.1012 -35.0738 -35.0712 -35.0705 -35.0697
   -11.5535 -11.5511 -11.4019 -11.4003 -11.3206 -11.3185 -11.1652 -11.1647
   -11.0456 -11.0430  -6.0209  -6.0185  -5.8469  -5.8429  -5.3447  -5.3421
    -4.9769  -4.9753  -4.7372  -4.7339  -4.3524  -4.3502  -3.9966  -3.9958
    -3.8908  -3.8887  -3.7598  -3.7560  -3.5840  -3.5828  -3.4343  -3.4325
    -3.2767  -3.2755  -3.1799  -3.1766  -3.0653  -3.0623  -2.8833  -2.8813
    -2.6093  -2.6061  -2.4741  -2.4720  -2.2459  -2.2431  -2.1792  -2.1759
    -2.1086  -2.1064  -1.9656  -1.9632  -1.7061  -1.7008  -1.5940  -1.5888
    -1.4546  -1.4506  -1.3376  -1.3367  -1.2974  -1.2936  -1.0821  -1.0815
    -1.0240  -1.0214  -0.7563  -0.7548  -0.6904  -0.6895   0.5048   0.5052
     1.0180   1.0201   1.0726   1.0730   1.3353   1.3373   1.7313   1.7357
     2.0166   2.0189   2.0681   2.0707   2.3270   2.3305   2.9582   2.9603
     3.0885   3.0908   3.4432   3.4449

          k =-0.5000-2.6109 0.0000 ( 85704 PWs)   bands (ev):

  -103.2801-103.2769-103.2757-103.2653-102.9670-102.9668 -68.6233 -68.6201
   -68.6200 -68.6194 -63.8415 -63.8383 -63.8372 -63.8273 -63.6760 -63.6756
   -63.6732 -63.6652 -63.5621 -63.5591 -63.5588 -63.5486 -63.4723 -63.4714
   -63.4656 -63.4653 -63.2148 -63.2146 -35.1274 -35.1252 -35.1247 -35.1237
   -35.1041 -35.1026 -35.1007 -35.1002 -35.0724 -35.0697 -35.0690 -35.0683
   -11.3192 -11.3185 -11.2307 -11.2278 -11.1895 -11.1871 -11.1498 -11.1455
   -10.9534 -10.9498  -6.3145  -6.3120  -6.1419  -6.1376  -5.5846  -5.5810
    -5.0591  -5.0577  -4.9054  -4.9003  -4.0585  -4.0567  -3.9967  -3.9958
    -3.8108  -3.8100  -3.5950  -3.5949  -3.5608  -3.5573  -3.4448  -3.4444
    -3.4420  -3.4410  -3.1071  -3.1055  -2.9784  -2.9760  -2.9341  -2.9314
    -2.5718  -2.5670  -2.4665  -2.4658  -2.2357  -2.2300  -2.1550  -2.1545
    -2.1058  -2.1043  -2.0137  -2.0072  -1.8192  -1.8172  -1.6498  -1.6436
    -1.4251  -1.4230  -1.3814  -1.3746  -1.2354  -1.2337  -1.1913  -1.1907
    -1.0439  -1.0437  -0.9026  -0.9014  -0.7107  -0.7096   0.4658   0.4662
     1.0260   1.0267   1.1252   1.1270   1.1662   1.1665   1.8697   1.8754
     1.9582   1.9603   2.3286   2.3290   2.5262   2.5294   3.0129   3.0134
     3.0500   3.0512   3.5182   3.5202

     the Fermi energy is     0.0747 ev

!    total energy              =   -9109.85582206 Ry
     total all-electron energy =     -9109.855822 Ry
     estimated scf accuracy    <          1.0E-10 Ry
     smearing contrib. (-TS)   =      -0.00000858 Ry
     internal energy E=F+TS    =   -9109.85581347 Ry

     The total energy is F=E-TS. E is the sum of the following terms:
     one-electron contribution =  -16369.27228957 Ry
     hartree contribution      =    8043.53829578 Ry
     xc contribution           =    -364.89624742 Ry
     ewald contribution        =    5848.46121013 Ry
     one-center paw contrib.   =   -6267.68678240 Ry

     convergence has been achieved in  18 iterations

     negative rho (up, down):  6.530E-02 0.000E+00

     Forces acting on atoms (cartesian axes, Ry/au):

     atom    1 type  1   force =    -0.00074075   -0.00025955   -0.00053473
     atom    2 type  1   force =     0.00009885    0.00027241    0.00043394
     atom    3 type  1   force =     0.00023215   -0.00013339   -0.00096500
     atom    4 type  1   force =     0.00027808    0.00021035    0.00034287
     atom    5 type  2   force =     0.00003790   -0.00059010    0.00002427
     atom    6 type  2   force =     0.00031860    0.00058449    0.00031677
     atom    7 type  2   force =     0.00016807   -0.00066651   -0.00011305
     atom    8 type  2   force =     0.00045757    0.00058873    0.00061773
     atom    9 type  2   force =     0.00008041    0.00011266    0.00011520
     atom   10 type  2   force =    -0.00010307   -0.00009347   -0.00026868
     atom   11 type  3   force =    -0.00079795    0.00032542   -0.00014084
     atom   12 type  3   force =     0.00004947   -0.00036122    0.00042017
     atom   13 type  3   force =    -0.00006883   -0.00007666   -0.00003550
     atom   14 type  3   force =    -0.00026909    0.00004329   -0.00001399
     atom   15 type  3   force =     0.00038914    0.00034805    0.00009747
     atom   16 type  3   force =    -0.00015824   -0.00031369   -0.00005977
     atom   17 type  3   force =     0.00000059   -0.00011658    0.00000998
     atom   18 type  3   force =     0.00069784    0.00011214    0.00028344
     atom   19 type  3   force =    -0.00020959    0.00001082   -0.00082266
     atom   20 type  3   force =    -0.00046117    0.00000281    0.00029239

     Total force =     0.002835     Total SCF correction =     0.000048


     Computing stress (Cartesian axis) and pressure


     negative rho (up, down):  6.530E-02 0.000E+00
          total   stress  (Ry/bohr**3)                   (kbar)     P=       -3.73
  -0.00008228  -0.00000002   0.00000027          -12.10       -0.00        0.04
  -0.00000002   0.00004439  -0.00000003           -0.00        6.53       -0.00
   0.00000027  -0.00000003  -0.00003809            0.04       -0.00       -5.60

     Energy error            =      1.7E-05 Ry
     Gradient error          =      9.6E-04 Ry/Bohr

     bfgs converged in  25 scf cycles and  24 bfgs steps
     (criteria: energy <  1.0E-04 Ry, force <  1.0E-03 Ry/Bohr)

     End of BFGS Geometry Optimization

     Final energy             =   -9109.8558220573 Ry

     File /ddn/data/physics/eamoujaes/2D-Ta2Ni3Te5/ELASTIC/C12/OUT/ta2ni3te5.bfgs deleted, as requested
Begin final coordinates

ATOMIC_POSITIONS (angstrom)
Ta           15.6850122982        0.9512363402       12.3713760241
Ta            6.5048123135        2.7085678254       12.6642268068
Ta            2.0458502776        0.9512412760       12.3856905716
Ta           11.2235015931        2.7082574704       12.6535007327
Ni           13.0467406982        0.9520110347       11.7394858618
Ni            3.8667734103        2.7078893689       13.2897381182
Ni            4.6798424259        0.9525425273       11.7571945279
Ni           13.8573703258        2.7074741636       13.2712764772
Ni            8.8647867659        0.9495639259       12.3264621222
Ni           -0.3135514870        2.7097405861       12.7157311364
Te           14.4592981792        2.7079398693       10.4665932494
Te            5.2727479843        0.9520050722       14.5653352026
Te           10.7221950845        0.9510966316       10.5383906511
Te            1.5458459714        2.7086381459       14.5010122521
Te            3.2744715901        2.7082280002       10.4804161601
Te           12.4593011395        0.9514286334       14.5536901992
Te            7.0006544284        0.9517086042       10.5474542201
Te           16.1725634304        2.7081150482       14.4892386723
Te           -0.3081676390        0.9519192900       10.8491853946
Te            8.8685135730        2.7073286404       14.1922526193
End final coordinates



     Writing all to output data dir /ddn/data/physics/eamoujaes/2D-Ta2Ni3Te5/ELASTIC/C12/OUT/ta2ni3te5.save/
 
     init_run     :     86.41s CPU     42.88s WALL (       1 calls)
     electrons    :  26133.23s CPU   9612.04s WALL (      25 calls)
     update_pot   :   1315.40s CPU    452.71s WALL (      24 calls)
     forces       :   1191.52s CPU    406.37s WALL (      25 calls)
     stress       :   2855.79s CPU    976.25s WALL (      25 calls)

     Called by init_run:
     wfcinit      :     27.64s CPU     13.57s WALL (       1 calls)
     potinit      :     18.61s CPU      6.38s WALL (       1 calls)
     hinit0       :     35.43s CPU     19.66s WALL (       1 calls)

     Called by electrons:
     c_bands      :  18904.94s CPU   6622.68s WALL (     541 calls)
     sum_band     :   4473.71s CPU   1609.83s WALL (     541 calls)
     v_of_rho     :   1232.52s CPU    472.60s WALL (     558 calls)
     newd         :    760.23s CPU    324.95s WALL (     558 calls)
     PAW_pot      :    362.85s CPU    129.05s WALL (     582 calls)
     mix_rho      :    290.11s CPU    111.40s WALL (     541 calls)

     Called by c_bands:
     init_us_2    :    174.40s CPU     58.97s WALL (    2314 calls)
     init_us_2:cp :    174.31s CPU     58.95s WALL (    2314 calls)
     cegterg      :  17812.06s CPU   6116.90s WALL (    1082 calls)

     Called by *egterg:
     cdiaghg      :    218.95s CPU     75.59s WALL (    3696 calls)
     h_psi        :  12168.70s CPU   4181.84s WALL (    3762 calls)
     s_psi        :   1053.39s CPU    351.54s WALL (    3762 calls)
     g_psi        :     48.42s CPU     16.19s WALL (    2678 calls)

     Called by h_psi:
     h_psi:calbec :   1091.27s CPU    365.11s WALL (    3762 calls)
     vloc_psi     :   9942.23s CPU   3423.77s WALL (    3762 calls)
     add_vuspsi   :   1055.24s CPU    352.20s WALL (    3762 calls)

     General routines
     calbec       :   1692.36s CPU    567.26s WALL (    5142 calls)
     fft          :    869.03s CPU    329.44s WALL (    7861 calls)
     ffts         :     32.19s CPU     11.64s WALL (    1099 calls)
     fftw         :   8872.74s CPU   3091.20s WALL (  788262 calls)
     interpolate  :    106.23s CPU     41.36s WALL (     558 calls)
 
     Parallel routines
 
     PWSCF        :      8h48m CPU      3h14m WALL

 
   This run was terminated on:  23: 3:42  31Jul2024            

=------------------------------------------------------------------------------=
   JOB DONE.
=------------------------------------------------------------------------------=
