
     Program PWSCF v.7.1 starts on 31Jul2024 at 23: 4: 5 

     This program is part of the open-source Quantum ESPRESSO suite
     for quantum simulation of materials; please cite
         "P. Giannozzi et al., J. Phys.:Condens. Matter 21 395502 (2009);
         "P. Giannozzi et al., J. Phys.:Condens. Matter 29 465901 (2017);
         "P. Giannozzi et al., J. Chem. Phys. 152 154105 (2020);
          URL http://www.quantum-espresso.org", 
     in publications or presentations arising from this work. More details at
     http://www.quantum-espresso.org/quote

     Parallel version (MPI & OpenMP), running on      72 processor cores
     Number of MPI processes:                24
     Threads/MPI process:                     3

     MPI processes distributed on     3 nodes
     28483 MiB available memory on the printing compute node when the environment starts
 
     Waiting for input...
     Reading input from standard input
Warning: card &CELL ignored
Warning: card CELL_DYNAMICS='BFGS' ignored
Warning: card PRESS=0.0 ignored
Warning: card CELL_DOFREE='2DXY' ignored
Warning: card / ignored

     Current dimensions of program PWSCF are:
     Max number of different atomic species (ntypx) = 10
     Max number of k-points (npk) =  40000
     Max angular momentum in pseudopotentials (lmaxx) =  4
     Message from routine read_pp_mesh:
     mismatch in mesh size, discarding the one in header
     Message from routine read_pp_mesh:
     mismatch in mesh size, discarding the one in header
     Message from routine read_pp_mesh:
     mismatch in mesh size, discarding the one in header
 
     K-points division:     npool     =       8
     R & G space division:  proc/nbgrp/npool/nimage =       3
     Subspace diagonalization in iterative solution of the eigenvalue problem:
     a serial algorithm will be used

 
     Parallelization info
     --------------------
     sticks:   dense  smooth     PW     G-vecs:    dense   smooth      PW
     Min        2931    1463    416               644921   227837   34338
     Max        2932    1464    417               644932   227842   34342
     Sum        8795    4391   1249              1934783   683519  103021
 
     Using Slab Decomposition
 


     bravais-lattice index     =            0
     lattice parameter (alat)  =      35.3783  a.u.
     unit-cell volume          =   10893.2149 (a.u.)^3
     number of atoms/cell      =           20
     number of atomic types    =            3
     number of electrons       =       220.00
     number of Kohn-Sham states=          132
     kinetic-energy cutoff     =      60.0000  Ry
     charge density cutoff     =     480.0000  Ry
     scf convergence threshold =      1.0E-08
     mixing beta               =       0.2000
     number of iterations used =            8  plain     mixing
     energy convergence thresh.=      1.0E-04
     force convergence thresh. =      1.0E-03
     Exchange-correlation= SLA PW PBX PBC
                           (   1   4   3   4   0   0   0)
     nstep                     =         2000


     celldm(1)=  35.378319  celldm(2)=   0.000000  celldm(3)=   0.000000
     celldm(4)=   0.000000  celldm(5)=   0.000000  celldm(6)=   0.000000

     crystal axes: (cart. coord. in units of alat)
               a(1) = (   1.000000   0.000000   0.000000 )  
               a(2) = (   0.000000   0.183961   0.000000 )  
               a(3) = (   0.000000   0.000000   1.337272 )  

     reciprocal axes: (cart. coord. in units 2 pi/alat)
               b(1) = (  1.000000  0.000000  0.000000 )  
               b(2) = (  0.000000  5.435947  0.000000 )  
               b(3) = (  0.000000  0.000000  0.747791 )  


     PseudoPot. # 1 for Ta read from file:
     /ddn/data/physics/eamoujaes/PSEUDO-CREATED/Ta.upf
     MD5 check sum: d865b2c2c09566b116f2b8decb2c153d
     Pseudo is Projector augmented-wave + core cor, Zval = 13.0
     Generated using ATOMPAW code
     Shape of augmentation charge: SINC**2
     Using radial grid of 2342 points,  6 beta functions with: 
                l(1) =   0
                l(2) =   0
                l(3) =   1
                l(4) =   1
                l(5) =   2
                l(6) =   2
     Q(r) pseudized with 0 coefficients 


     PseudoPot. # 2 for Ni read from file:
     /ddn/data/physics/eamoujaes/PSEUDO-CREATED/Ni.upf
     MD5 check sum: 85a2a5d9d38f4289a1cc30d5adb66a03
     Pseudo is Projector augmented-wave + core cor, Zval = 18.0
     Generated using ATOMPAW code
     Shape of augmentation charge: SINC**2
     Using radial grid of 2342 points,  6 beta functions with: 
                l(1) =   0
                l(2) =   0
                l(3) =   1
                l(4) =   1
                l(5) =   2
                l(6) =   2
     Q(r) pseudized with 0 coefficients 


     PseudoPot. # 3 for Te read from file:
     /ddn/data/physics/eamoujaes/PSEUDO-CREATED/Te.upf
     MD5 check sum: 8d958f193a7511a138982c2e72838810
     Pseudo is Projector augmented-wave + core cor, Zval =  6.0
     Generated using ATOMPAW code
     Shape of augmentation charge: SINC**2
     Using radial grid of 2342 points,  4 beta functions with: 
                l(1) =   0
                l(2) =   0
                l(3) =   1
                l(4) =   1
     Q(r) pseudized with 0 coefficients 


     atomic species   valence    mass     pseudopotential
        Ta            13.00   180.94790     Ta( 1.00)
        Ni            18.00    58.69340     Ni( 1.00)
        Te             6.00   127.60000     Te( 1.00)

     No symmetry found



   Cartesian axes

     site n.     atom                  positions (alat units)
         1           Ta  tau(   1) = (   0.8221522   0.0488705   0.6646853  )
         2           Ta  tau(   2) = (   0.3510181   0.1466113   0.6725991  )
         3           Ta  tau(   3) = (   0.1209929   0.0488705   0.6646760  )
         4           Ta  tau(   4) = (   0.5921274   0.1466113   0.6726076  )
         5           Ni  tau(   5) = (   0.6871499   0.0488705   0.6282484  )
         6           Ni  tau(   6) = (   0.2160148   0.1466113   0.7090359  )
         7           Ni  tau(   7) = (   0.2559887   0.0488705   0.6282342  )
         8           Ni  tau(   8) = (   0.7271230   0.1466113   0.7090496  )
         9           Ni  tau(   9) = (   0.4715644   0.0488705   0.6606453  )
        10           Ni  tau(  10) = (   0.0004314   0.1466113   0.6766380  )
        11           Te  tau(  11) = (   0.7591869   0.1466113   0.5627387  )
        12           Te  tau(  12) = (   0.2880512   0.0488705   0.7745453  )
        13           Te  tau(  13) = (   0.5659530   0.0488705   0.5618882  )
        14           Te  tau(  14) = (   0.0948193   0.1466113   0.7753958  )
        15           Te  tau(  15) = (   0.1839440   0.1466113   0.5627268  )
        16           Te  tau(  16) = (   0.6550787   0.0488705   0.7745571  )
        17           Te  tau(  17) = (   0.3771950   0.0488705   0.5618795  )
        18           Te  tau(  18) = (   0.8483288   0.1466113   0.7754050  )
        19           Te  tau(  19) = (   0.0004433   0.0488705   0.5788893  )
        20           Te  tau(  20) = (   0.4715757   0.1466113   0.7583930  )

     number of k points=    12  Gaussian smearing, width (Ry)=  0.0020
                       cart. coord. in units 2pi/alat
        k(    1) = (   0.0000000   0.0000000   0.0000000), wk =   0.1000000
        k(    2) = (   0.0000000   0.5435947   0.0000000), wk =   0.2000000
        k(    3) = (   0.0000000   1.0871893   0.0000000), wk =   0.2000000
        k(    4) = (   0.0000000   1.6307840   0.0000000), wk =   0.2000000
        k(    5) = (   0.0000000   2.1743786   0.0000000), wk =   0.2000000
        k(    6) = (   0.0000000  -2.7179733   0.0000000), wk =   0.1000000
        k(    7) = (  -0.5000000   0.0000000   0.0000000), wk =   0.1000000
        k(    8) = (  -0.5000000   0.5435947   0.0000000), wk =   0.2000000
        k(    9) = (  -0.5000000   1.0871893   0.0000000), wk =   0.2000000
        k(   10) = (  -0.5000000   1.6307840   0.0000000), wk =   0.2000000
        k(   11) = (  -0.5000000   2.1743786   0.0000000), wk =   0.2000000
        k(   12) = (  -0.5000000  -2.7179733   0.0000000), wk =   0.1000000

     Dense  grid:  1934783 G-vectors     FFT dimensions: ( 250,  45, 360)

     Smooth grid:   683519 G-vectors     FFT dimensions: ( 180,  36, 240)

     Estimated max dynamical RAM per process >       1.01 GB

     Estimated total dynamical RAM >      21.04 GB

     Initial potential from superposition of free atoms

     starting charge     219.9927, renormalised to     220.0000

     negative rho (up, down):  5.024E-02 0.000E+00
     Starting wfcs are  260 randomized atomic wfcs
     Checking if some PAW data can be deallocated... 

     total cpu time spent up to now is       42.5 secs

     Self-consistent Calculation

     iteration #  1     ecut=    60.00 Ry     beta= 0.20
     Davidson diagonalization with overlap
     ethr =  1.00E-02,  avg # of iterations =  2.8

     negative rho (up, down):  5.083E-02 0.000E+00

     total cpu time spent up to now is       61.4 secs

     total energy              =   -9107.68434955 Ry
     estimated scf accuracy    <       8.07904424 Ry

     iteration #  2     ecut=    60.00 Ry     beta= 0.20
     Davidson diagonalization with overlap
     ethr =  3.67E-03,  avg # of iterations =  2.3

     negative rho (up, down):  5.184E-02 0.000E+00

     total cpu time spent up to now is       84.0 secs

     total energy              =   -9106.40895025 Ry
     estimated scf accuracy    <      36.36888546 Ry

     iteration #  3     ecut=    60.00 Ry     beta= 0.20
     Davidson diagonalization with overlap
     ethr =  3.67E-03,  avg # of iterations =  2.0

     negative rho (up, down):  5.253E-02 0.000E+00

     total cpu time spent up to now is      106.5 secs

     total energy              =   -9107.26349304 Ry
     estimated scf accuracy    <      76.46881556 Ry

     iteration #  4     ecut=    60.00 Ry     beta= 0.20
     Davidson diagonalization with overlap
     ethr =  3.67E-03,  avg # of iterations =  1.0

     negative rho (up, down):  5.369E-02 0.000E+00

     total cpu time spent up to now is      124.2 secs

     total energy              =   -9109.68961655 Ry
     estimated scf accuracy    <       2.84411424 Ry

     iteration #  5     ecut=    60.00 Ry     beta= 0.20
     Davidson diagonalization with overlap
     ethr =  1.29E-03,  avg # of iterations =  1.0

     negative rho (up, down):  5.488E-02 0.000E+00

     total cpu time spent up to now is      139.2 secs

     total energy              =   -9109.74077759 Ry
     estimated scf accuracy    <       1.31225924 Ry

     iteration #  6     ecut=    60.00 Ry     beta= 0.20
     Davidson diagonalization with overlap
     ethr =  5.96E-04,  avg # of iterations =  1.0

     negative rho (up, down):  5.681E-02 0.000E+00

     total cpu time spent up to now is      154.3 secs

     total energy              =   -9109.67270104 Ry
     estimated scf accuracy    <       0.86011301 Ry

     iteration #  7     ecut=    60.00 Ry     beta= 0.20
     Davidson diagonalization with overlap
     ethr =  3.91E-04,  avg # of iterations =  1.0

     negative rho (up, down):  6.121E-02 0.000E+00

     total cpu time spent up to now is      169.4 secs

     total energy              =   -9109.60036374 Ry
     estimated scf accuracy    <       0.37024892 Ry

     iteration #  8     ecut=    60.00 Ry     beta= 0.20
     Davidson diagonalization with overlap
     ethr =  1.68E-04,  avg # of iterations =  2.3

     negative rho (up, down):  6.255E-02 0.000E+00

     total cpu time spent up to now is      186.4 secs

     total energy              =   -9109.66696245 Ry
     estimated scf accuracy    <       0.31974346 Ry

     iteration #  9     ecut=    60.00 Ry     beta= 0.20
     Davidson diagonalization with overlap
     ethr =  1.45E-04,  avg # of iterations =  1.0

     negative rho (up, down):  6.298E-02 0.000E+00

     total cpu time spent up to now is      201.5 secs

     total energy              =   -9109.62990810 Ry
     estimated scf accuracy    <       0.24688563 Ry

     iteration # 10     ecut=    60.00 Ry     beta= 0.20
     Davidson diagonalization with overlap
     ethr =  1.12E-04,  avg # of iterations =  1.2

     negative rho (up, down):  6.384E-02 0.000E+00

     total cpu time spent up to now is      217.1 secs

     total energy              =   -9109.65252496 Ry
     estimated scf accuracy    <       0.01142126 Ry

     iteration # 11     ecut=    60.00 Ry     beta= 0.20
     Davidson diagonalization with overlap
     c_bands:  2 eigenvalues not converged
     ethr =  5.19E-06,  avg # of iterations = 17.1

     negative rho (up, down):  6.461E-02 0.000E+00

     total cpu time spent up to now is      241.9 secs

     total energy              =   -9109.65322241 Ry
     estimated scf accuracy    <       0.01278231 Ry

     iteration # 12     ecut=    60.00 Ry     beta= 0.20
     Davidson diagonalization with overlap
     ethr =  5.19E-06,  avg # of iterations =  2.7

     negative rho (up, down):  6.542E-02 0.000E+00

     total cpu time spent up to now is      258.2 secs

     total energy              =   -9109.65294593 Ry
     estimated scf accuracy    <       0.00435306 Ry

     iteration # 13     ecut=    60.00 Ry     beta= 0.20
     Davidson diagonalization with overlap
     ethr =  1.98E-06,  avg # of iterations =  4.4

     negative rho (up, down):  6.601E-02 0.000E+00

     total cpu time spent up to now is      276.0 secs

     total energy              =   -9109.65332937 Ry
     estimated scf accuracy    <       0.00128931 Ry

     iteration # 14     ecut=    60.00 Ry     beta= 0.20
     Davidson diagonalization with overlap
     ethr =  5.86E-07,  avg # of iterations =  1.5

     negative rho (up, down):  6.624E-02 0.000E+00

     total cpu time spent up to now is      292.0 secs

     total energy              =   -9109.65342957 Ry
     estimated scf accuracy    <       0.00035944 Ry

     iteration # 15     ecut=    60.00 Ry     beta= 0.20
     Davidson diagonalization with overlap
     ethr =  1.63E-07,  avg # of iterations =  1.7

     negative rho (up, down):  6.632E-02 0.000E+00

     total cpu time spent up to now is      307.9 secs

     total energy              =   -9109.65344490 Ry
     estimated scf accuracy    <       0.00013183 Ry

     iteration # 16     ecut=    60.00 Ry     beta= 0.20
     Davidson diagonalization with overlap
     ethr =  5.99E-08,  avg # of iterations =  2.0

     negative rho (up, down):  6.639E-02 0.000E+00

     total cpu time spent up to now is      324.1 secs

     total energy              =   -9109.65345827 Ry
     estimated scf accuracy    <       0.00005102 Ry

     iteration # 17     ecut=    60.00 Ry     beta= 0.20
     Davidson diagonalization with overlap
     ethr =  2.32E-08,  avg # of iterations =  2.0

     negative rho (up, down):  6.640E-02 0.000E+00

     total cpu time spent up to now is      340.3 secs

     total energy              =   -9109.65345992 Ry
     estimated scf accuracy    <       0.00002994 Ry

     iteration # 18     ecut=    60.00 Ry     beta= 0.20
     Davidson diagonalization with overlap
     ethr =  1.36E-08,  avg # of iterations =  1.2

     negative rho (up, down):  6.639E-02 0.000E+00

     total cpu time spent up to now is      355.7 secs

     total energy              =   -9109.65346120 Ry
     estimated scf accuracy    <       0.00002708 Ry

     iteration # 19     ecut=    60.00 Ry     beta= 0.20
     Davidson diagonalization with overlap
     ethr =  1.23E-08,  avg # of iterations =  1.2

     negative rho (up, down):  6.639E-02 0.000E+00

     total cpu time spent up to now is      371.5 secs

     total energy              =   -9109.65346276 Ry
     estimated scf accuracy    <       0.00000951 Ry

     iteration # 20     ecut=    60.00 Ry     beta= 0.20
     Davidson diagonalization with overlap
     ethr =  4.32E-09,  avg # of iterations =  2.0

     negative rho (up, down):  6.636E-02 0.000E+00

     total cpu time spent up to now is      387.7 secs

     total energy              =   -9109.65346371 Ry
     estimated scf accuracy    <       0.00000322 Ry

     iteration # 21     ecut=    60.00 Ry     beta= 0.20
     Davidson diagonalization with overlap
     ethr =  1.47E-09,  avg # of iterations =  2.0

     negative rho (up, down):  6.634E-02 0.000E+00

     total cpu time spent up to now is      403.9 secs

     total energy              =   -9109.65346397 Ry
     estimated scf accuracy    <       0.00000076 Ry

     iteration # 22     ecut=    60.00 Ry     beta= 0.20
     Davidson diagonalization with overlap
     ethr =  3.46E-10,  avg # of iterations =  2.4

     negative rho (up, down):  6.631E-02 0.000E+00

     total cpu time spent up to now is      421.7 secs

     total energy              =   -9109.65346401 Ry
     estimated scf accuracy    <       0.00000072 Ry

     iteration # 23     ecut=    60.00 Ry     beta= 0.20
     Davidson diagonalization with overlap
     ethr =  3.26E-10,  avg # of iterations =  1.1

     negative rho (up, down):  6.628E-02 0.000E+00

     total cpu time spent up to now is      437.2 secs

     total energy              =   -9109.65346410 Ry
     estimated scf accuracy    <       0.00000019 Ry

     iteration # 24     ecut=    60.00 Ry     beta= 0.20
     Davidson diagonalization with overlap
     ethr =  8.47E-11,  avg # of iterations =  2.0

     negative rho (up, down):  6.627E-02 0.000E+00

     total cpu time spent up to now is      454.3 secs

     total energy              =   -9109.65346413 Ry
     estimated scf accuracy    <       0.00000011 Ry

     iteration # 25     ecut=    60.00 Ry     beta= 0.20
     Davidson diagonalization with overlap
     ethr =  4.89E-11,  avg # of iterations =  1.2

     negative rho (up, down):  6.626E-02 0.000E+00

     total cpu time spent up to now is      470.3 secs

     total energy              =   -9109.65346414 Ry
     estimated scf accuracy    <       0.00000006 Ry

     iteration # 26     ecut=    60.00 Ry     beta= 0.20
     Davidson diagonalization with overlap
     ethr =  2.85E-11,  avg # of iterations =  1.6

     negative rho (up, down):  6.625E-02 0.000E+00

     total cpu time spent up to now is      486.5 secs

     total energy              =   -9109.65346415 Ry
     estimated scf accuracy    <       0.00000004 Ry

     iteration # 27     ecut=    60.00 Ry     beta= 0.20
     Davidson diagonalization with overlap
     ethr =  1.81E-11,  avg # of iterations =  1.8

     negative rho (up, down):  6.624E-02 0.000E+00

     total cpu time spent up to now is      502.7 secs

     total energy              =   -9109.65346415 Ry
     estimated scf accuracy    <       0.00000001 Ry

     iteration # 28     ecut=    60.00 Ry     beta= 0.20
     Davidson diagonalization with overlap
     ethr =  6.70E-12,  avg # of iterations =  2.0

     negative rho (up, down):  6.623E-02 0.000E+00

     total cpu time spent up to now is      519.2 secs

     total energy              =   -9109.65346415 Ry
     estimated scf accuracy    <       0.00000001 Ry

     iteration # 29     ecut=    60.00 Ry     beta= 0.20
     Davidson diagonalization with overlap
     ethr =  6.06E-12,  avg # of iterations =  1.0

     negative rho (up, down):  6.622E-02 0.000E+00

     total cpu time spent up to now is      534.0 secs

     End of self-consistent calculation

          k = 0.0000 0.0000 0.0000 ( 85239 PWs)   bands (ev):

  -103.7232-103.6448-103.4014-103.3611-103.1317-102.6272 -68.8219 -68.4139
   -68.3252 -68.2568 -64.2693 -64.2061 -64.1525 -64.0424 -64.0157 -63.9612
   -63.9278 -63.9225 -63.8166 -63.7355 -63.7179 -63.6454 -63.6317 -63.6089
   -63.4109 -63.1521 -63.0381 -62.9733 -35.4130 -35.2510 -35.1787 -34.9755
   -34.9454 -34.8797 -34.8533 -34.8415 -34.7969 -34.7859 -34.7564 -34.6918
   -13.3389 -13.1078 -12.7678 -12.5505 -12.3716 -12.1467 -12.1117 -11.9433
   -11.7785 -11.7677  -6.4952  -6.2666  -6.0330  -5.8955  -5.7827  -5.6161
    -5.4083  -5.0118  -4.8608  -4.5225  -4.3472  -4.2187  -4.0975  -4.0264
    -3.9494  -3.8299  -3.6252  -3.5747  -3.4624  -3.4297  -3.2513  -3.1729
    -2.9829  -2.8195  -2.7861  -2.6994  -2.6430  -2.5421  -2.4983  -2.4296
    -2.2867  -2.2062  -2.1372  -2.0899  -2.0851  -2.0102  -1.9249  -1.8827
    -1.8075  -1.7780  -1.5934  -1.5224  -1.4489  -1.4435  -1.3157  -1.3047
    -1.1643  -1.0633  -1.0314  -0.9777  -0.8132  -0.7983  -0.6318  -0.6083
    -0.5055  -0.4282  -0.3968  -0.1819  -0.1666   0.0388   0.3181   0.4352
     0.9885   1.0613   1.1553   1.3008   1.3336   1.3908   1.4343   1.7143
     1.7991   1.8499   2.1993   2.3523   2.6584   2.7128   2.8505   3.2102
     3.3847   3.4971   3.6022   3.6309

          k = 0.0000 0.5436 0.0000 ( 85370 PWs)   bands (ev):

  -103.7231-103.6448-103.4012-103.3613-103.1317-102.6272 -68.8215 -68.4135
   -68.3248 -68.2564 -64.2694 -64.2063 -64.1525 -64.0486 -64.0102 -63.9612
   -63.9280 -63.9226 -63.8167 -63.7430 -63.7111 -63.6456 -63.6317 -63.6089
   -63.4116 -63.1521 -63.0387 -62.9733 -35.4118 -35.2493 -35.1918 -34.9742
   -34.9435 -34.8782 -34.8553 -34.8516 -34.7954 -34.7842 -34.7702 -34.7056
   -13.2240 -12.9942 -12.6656 -12.4597 -12.2994 -12.0640 -12.0352 -11.8762
   -11.7130 -11.6936  -6.3884  -6.1600  -5.9116  -5.7857  -5.6649  -5.4874
    -5.2936  -4.9312  -4.7725  -4.4934  -4.3448  -4.2333  -4.1469  -4.0919
    -3.9858  -3.8806  -3.7060  -3.5683  -3.4585  -3.3964  -3.2821  -3.1401
    -3.0957  -2.9507  -2.8804  -2.7974  -2.7892  -2.6794  -2.5393  -2.4631
    -2.3707  -2.3202  -2.2737  -2.1414  -2.1021  -2.0490  -1.9824  -1.9196
    -1.8710  -1.7915  -1.6771  -1.5817  -1.5269  -1.4649  -1.4286  -1.3527
    -1.2622  -1.2122  -1.1087  -1.0452  -0.9711  -0.8657  -0.8216  -0.7075
    -0.6181  -0.5544  -0.4424  -0.3277  -0.0235   0.0748   0.2047   0.5285
     0.7162   0.9082   1.1091   1.2098   1.2457   1.3008   1.3831   1.4568
     1.6065   1.9011   2.0766   2.2755   2.3648   2.5263   2.7468   3.0395
     3.1699   3.2588   3.3667   3.4541

          k = 0.0000 1.0872 0.0000 ( 85486 PWs)   bands (ev):

  -103.7228-103.6451-103.4007-103.3617-103.1317-102.6272 -68.8205 -68.4124
   -68.3237 -68.2553 -64.2693 -64.2068 -64.1517 -64.0597 -64.0003 -63.9610
   -63.9282 -63.9234 -63.8161 -63.7551 -63.7005 -63.6465 -63.6317 -63.6088
   -63.4125 -63.1521 -63.0395 -62.9733 -35.4087 -35.2469 -35.2241 -34.9708
   -34.9387 -34.8910 -34.8743 -34.8475 -34.8058 -34.7915 -34.7798 -34.7413
   -12.8938 -12.6685 -12.3794 -12.2132 -12.0930 -11.8378 -11.8120 -11.6866
   -11.5543 -11.4625  -6.1072  -5.8759  -5.6060  -5.5319  -5.3458  -5.1733
    -4.9994  -4.8558  -4.5982  -4.5761  -4.4376  -4.3377  -4.2621  -4.2254
    -4.0998  -3.9930  -3.8657  -3.6959  -3.6193  -3.5236  -3.4551  -3.4358
    -3.3097  -3.1622  -3.1015  -2.9799  -2.9134  -2.8115  -2.7562  -2.6821
    -2.6280  -2.5326  -2.4599  -2.4108  -2.3769  -2.2457  -2.2032  -2.0872
    -2.0186  -1.9749  -1.8757  -1.7930  -1.6629  -1.6202  -1.5678  -1.4900
    -1.4176  -1.3656  -1.2777  -1.1909  -1.1008  -1.0805  -1.0364  -0.9107
    -0.8263  -0.6963  -0.5303  -0.4079  -0.3319  -0.0649   0.3662   0.6008
     0.7633   0.8296   0.9337   1.0665   1.1188   1.2427   1.3224   1.4148
     1.5901   1.7623   1.8509   2.0353   2.2235   2.3872   2.5144   2.7173
     2.8202   3.0277   3.3481   3.8302

          k = 0.0000 1.6308 0.0000 ( 85556 PWs)   bands (ev):

  -103.7225-103.6453-103.4001-103.3623-103.1317-102.6272 -68.8192 -68.4111
   -68.3223 -68.2540 -64.2694 -64.2075 -64.1503 -64.0701 -63.9912 -63.9608
   -63.9286 -63.9245 -63.8146 -63.7663 -63.6909 -63.6477 -63.6316 -63.6088
   -63.4134 -63.1520 -63.0403 -62.9733 -35.4048 -35.2732 -35.2344 -34.9667
   -34.9418 -34.9256 -34.8701 -34.8549 -34.8362 -34.7915 -34.7841 -34.7706
   -12.3992 -12.1862 -11.9917 -11.8804 -11.7873 -11.5521 -11.4679 -11.4067
   -11.3399 -11.1390  -5.8886  -5.6744  -5.6169  -5.4501  -5.3159  -5.1749
    -5.0682  -4.9836  -4.8832  -4.6288  -4.4841  -4.3848  -4.3554  -4.2566
    -4.2234  -4.1590  -3.9855  -3.8981  -3.8366  -3.7125  -3.6722  -3.6624
    -3.5958  -3.2954  -3.1945  -3.1589  -3.0969  -3.0295  -2.9548  -2.8437
    -2.8030  -2.6862  -2.6325  -2.6251  -2.5465  -2.3678  -2.3218  -2.2620
    -2.1806  -2.0659  -2.0134  -1.9157  -1.8152  -1.7472  -1.6784  -1.6135
    -1.5283  -1.4288  -1.3703  -1.3387  -1.2903  -1.2121  -1.1473  -1.0259
    -0.9686  -0.8454  -0.7149  -0.6009  -0.4719  -0.2896   0.5840   0.6316
     0.6881   0.8377   1.0626   1.1172   1.3530   1.3876   1.4312   1.5989
     1.6441   1.7581   1.8774   2.0703   2.2091   2.5543   2.5959   2.8267
     3.0861   3.1343   3.4260   3.8424

          k = 0.0000 2.1744 0.0000 ( 85610 PWs)   bands (ev):

  -103.7222-103.6456-103.3996-103.3628-103.1317-102.6272 -68.8182 -68.4100
   -68.3213 -68.2529 -64.2694 -64.2081 -64.1488 -64.0776 -63.9849 -63.9607
   -63.9290 -63.9255 -63.8127 -63.7747 -63.6841 -63.6492 -63.6315 -63.6088
   -63.4141 -63.1520 -63.0409 -62.9733 -35.4017 -35.3066 -35.2304 -34.9743
   -34.9626 -34.9242 -34.8891 -34.8649 -34.8341 -34.8233 -34.7826 -34.7671
   -11.8658 -11.6877 -11.6767 -11.5581 -11.4562 -11.3057 -11.1744 -11.1348
   -11.0901 -10.8533  -6.4065  -6.2848  -6.1782  -6.0850  -5.6027  -5.3319
    -5.2077  -5.1018  -5.0111  -4.8682  -4.6600  -4.4756  -4.3455  -4.1342
    -4.0551  -3.9357  -3.8415  -3.7926  -3.7301  -3.6889  -3.6540  -3.5475
    -3.5087  -3.4220  -3.3752  -3.3033  -3.2755  -3.0636  -2.9612  -2.8952
    -2.7855  -2.6604  -2.6291  -2.5712  -2.4842  -2.4058  -2.3765  -2.3086
    -2.2601  -2.1270  -2.0991  -2.0358  -1.9581  -1.8814  -1.8140  -1.7128
    -1.6231  -1.5146  -1.5003  -1.3671  -1.3438  -1.2995  -1.1775  -1.0862
    -1.0124  -0.9492  -0.8744  -0.8034  -0.6145  -0.4530   0.3997   0.4978
     0.7579   0.9271   1.0893   1.1688   1.3475   1.6199   1.6572   1.8971
     1.9309   2.0343   2.2066   2.3104   2.4026   2.5564   2.9500   3.0234
     3.1683   3.2492   3.5279   3.5632

          k = 0.0000-2.7180 0.0000 ( 85712 PWs)   bands (ev):

  -103.7221-103.6457-103.3994-103.3630-103.1317-102.6272 -68.8178 -68.4096
   -68.3209 -68.2525 -64.2695 -64.2084 -64.1482 -64.0803 -63.9828 -63.9607
   -63.9292 -63.9260 -63.8118 -63.7780 -63.6816 -63.6500 -63.6316 -63.6088
   -63.4144 -63.1521 -63.0412 -62.9734 -35.4005 -35.3195 -35.2286 -34.9873
   -34.9616 -34.9224 -34.9023 -34.8637 -34.8373 -34.8317 -34.7813 -34.7653
   -11.6105 -11.5553 -11.4589 -11.3595 -11.3053 -11.2568 -11.0458 -11.0146
   -10.9711 -10.7503  -6.7053  -6.6134  -6.4848  -6.4169  -5.8842  -5.4507
    -5.3414  -5.2164  -5.1567  -5.1055  -4.4073  -4.2845  -4.2493  -4.1275
    -4.0074  -3.9681  -3.8000  -3.7582  -3.7282  -3.6563  -3.5649  -3.5607
    -3.4387  -3.3644  -3.3147  -3.2513  -3.1444  -3.0857  -2.9971  -2.9374
    -2.6875  -2.6613  -2.5900  -2.5418  -2.4845  -2.4140  -2.3612  -2.2992
    -2.1878  -2.1537  -2.1165  -2.0863  -2.0670  -1.9779  -1.8595  -1.7959
    -1.6327  -1.5841  -1.4452  -1.3782  -1.3137  -1.2870  -1.2704  -1.2337
    -1.0530  -0.9709  -0.8716  -0.8261  -0.7624  -0.5945   0.2912   0.4505
     0.8054   0.9944   1.0696   1.1990   1.3142   1.4938   1.7327   1.8817
     2.0576   2.1918   2.2988   2.3609   2.6478   2.7205   2.9956   3.1210
     3.2150   3.3821   3.4490   3.5026

          k =-0.5000 0.0000 0.0000 ( 85168 PWs)   bands (ev):

  -103.7232-103.6448-103.4014-103.3611-103.1317-102.6272 -68.8219 -68.4139
   -68.3252 -68.2568 -64.2692 -64.2059 -64.1525 -64.0424 -64.0156 -63.9611
   -63.9277 -63.9224 -63.8166 -63.7355 -63.7179 -63.6454 -63.6317 -63.6088
   -63.4109 -63.1521 -63.0381 -62.9732 -35.4130 -35.2510 -35.1787 -34.9755
   -34.9454 -34.8797 -34.8533 -34.8415 -34.7969 -34.7859 -34.7564 -34.6918
   -13.3339 -13.1237 -12.7411 -12.5579 -12.3727 -12.1679 -12.1316 -11.8763
   -11.8087 -11.7708  -6.4899  -6.2797  -6.0334  -5.9443  -5.7673  -5.5470
    -5.3622  -5.0488  -4.8910  -4.6568  -4.2527  -4.1358  -4.1250  -4.0160
    -3.9187  -3.8199  -3.6253  -3.5801  -3.4788  -3.4224  -3.3732  -3.1751
    -2.9694  -2.8414  -2.7855  -2.7007  -2.5993  -2.5417  -2.4494  -2.4033
    -2.2941  -2.2152  -2.1449  -2.0916  -2.0843  -2.0381  -1.9542  -1.8855
    -1.8079  -1.7314  -1.5802  -1.5348  -1.4668  -1.4437  -1.3210  -1.2966
    -1.1395  -1.0519  -1.0298  -0.9127  -0.8685  -0.7975  -0.6602  -0.5865
    -0.5253  -0.4185  -0.4044  -0.1902  -0.1563   0.0183   0.3456   0.5141
     0.8897   0.9733   1.1472   1.2788   1.3257   1.3841   1.4641   1.6879
     1.8241   1.9420   2.1959   2.2715   2.7016   2.7389   2.8428   3.3499
     3.3919   3.4644   3.5236   3.6975

          k =-0.5000 0.5436 0.0000 ( 85298 PWs)   bands (ev):

  -103.7231-103.6448-103.4012-103.3613-103.1317-102.6272 -68.8215 -68.4135
   -68.3248 -68.2564 -64.2692 -64.2062 -64.1525 -64.0485 -64.0102 -63.9611
   -63.9278 -63.9226 -63.8166 -63.7430 -63.7111 -63.6456 -63.6316 -63.6088
   -63.4115 -63.1521 -63.0386 -62.9732 -35.4118 -35.2493 -35.1918 -34.9742
   -34.9435 -34.8782 -34.8553 -34.8516 -34.7954 -34.7842 -34.7702 -34.7056
   -13.2193 -13.0095 -12.6411 -12.4637 -12.3010 -12.0882 -12.0534 -11.8109
   -11.7428 -11.6949  -6.3831  -6.1727  -5.9122  -5.8312  -5.6483  -5.4196
    -5.2491  -4.9480  -4.8374  -4.6138  -4.2870  -4.2054  -4.1177  -4.0640
    -3.9230  -3.8672  -3.7069  -3.6051  -3.4844  -3.4020  -3.3460  -3.1511
    -3.1079  -2.9401  -2.8854  -2.8231  -2.7622  -2.6150  -2.5304  -2.4859
    -2.3571  -2.3063  -2.2464  -2.1656  -2.1215  -2.0532  -2.0098  -1.9367
    -1.8395  -1.7782  -1.6782  -1.5973  -1.5233  -1.4588  -1.4303  -1.3686
    -1.2553  -1.1787  -1.1101  -1.0107  -0.9643  -0.9136  -0.8020  -0.7095
    -0.6224  -0.5653  -0.4467  -0.3421  -0.0285   0.1305   0.2039   0.5221
     0.7840   0.8801   1.0392   1.1617   1.2572   1.3102   1.3689   1.4481
     1.5757   1.9340   2.0241   2.2878   2.3967   2.4589   2.8459   3.0372
     3.1436   3.2783   3.3411   3.6050

          k =-0.5000 1.0872 0.0000 ( 85474 PWs)   bands (ev):

  -103.7228-103.6451-103.4007-103.3617-103.1317-102.6272 -68.8205 -68.4124
   -68.3237 -68.2553 -64.2693 -64.2068 -64.1517 -64.0597 -64.0003 -63.9610
   -63.9282 -63.9234 -63.8161 -63.7551 -63.7005 -63.6464 -63.6316 -63.6088
   -63.4125 -63.1520 -63.0395 -62.9733 -35.4087 -35.2469 -35.2241 -34.9708
   -34.9387 -34.8910 -34.8743 -34.8475 -34.8058 -34.7915 -34.7798 -34.7413
   -12.8898 -12.6822 -12.3625 -12.2069 -12.0964 -11.8588 -11.8355 -11.6257
   -11.5786 -11.4648  -6.1012  -5.8886  -5.6071  -5.5546  -5.3286  -5.1201
    -4.9860  -4.8494  -4.6703  -4.6387  -4.4310  -4.3554  -4.2708  -4.2089
    -3.9914  -3.9028  -3.8482  -3.7486  -3.6604  -3.5546  -3.4648  -3.4447
    -3.2983  -3.1621  -3.0802  -3.0522  -2.9500  -2.8238  -2.6880  -2.6448
    -2.6182  -2.5470  -2.4867  -2.3901  -2.3672  -2.2704  -2.2090  -2.0872
    -2.0122  -1.9777  -1.8614  -1.7829  -1.6677  -1.6212  -1.5371  -1.5125
    -1.4223  -1.3330  -1.2979  -1.2131  -1.1595  -1.0615  -0.9967  -0.9176
    -0.8454  -0.7065  -0.4897  -0.3958  -0.3265  -0.0718   0.4078   0.5948
     0.7705   0.8115   1.0034   1.0847   1.1098   1.2095   1.3628   1.3914
     1.4573   1.6714   1.8839   2.0147   2.2537   2.4287   2.5442   2.7174
     2.7675   2.9879   3.4158   3.9196

          k =-0.5000 1.6308 0.0000 ( 85608 PWs)   bands (ev):

  -103.7225-103.6453-103.4001-103.3623-103.1317-102.6272 -68.8192 -68.4111
   -68.3223 -68.2540 -64.2695 -64.2076 -64.1503 -64.0701 -63.9912 -63.9609
   -63.9287 -63.9245 -63.8146 -63.7663 -63.6909 -63.6477 -63.6316 -63.6089
   -63.4134 -63.1520 -63.0404 -62.9734 -35.4048 -35.2732 -35.2344 -34.9667
   -34.9418 -34.9256 -34.8701 -34.8549 -34.8362 -34.7915 -34.7841 -34.7706
   -12.3964 -12.1960 -11.9882 -11.8680 -11.7890 -11.5469 -11.5067 -11.3635
   -11.3564 -11.1391  -5.8804  -5.6905  -5.6024  -5.4405  -5.3268  -5.1956
    -5.0654  -4.9949  -4.8725  -4.6332  -4.5326  -4.3703  -4.3588  -4.2000
    -4.1647  -4.0944  -4.0224  -3.9710  -3.8814  -3.7325  -3.6928  -3.5793
    -3.5157  -3.3251  -3.2902  -3.1579  -3.0728  -3.0325  -3.0017  -2.8577
    -2.7336  -2.6733  -2.6507  -2.6140  -2.5375  -2.3980  -2.3142  -2.2630
    -2.1684  -2.0852  -1.9923  -1.9583  -1.7960  -1.7371  -1.6696  -1.6053
    -1.5235  -1.4308  -1.3804  -1.3410  -1.3027  -1.2159  -1.1257  -1.0125
    -0.9907  -0.8485  -0.7196  -0.6008  -0.4718  -0.2925   0.5748   0.6425
     0.7477   0.9139   1.0984   1.1378   1.2588   1.3675   1.4209   1.4895
     1.6506   1.7680   1.8836   2.0117   2.2848   2.4882   2.7276   2.8273
     2.9600   3.0974   3.5204   3.9455

          k =-0.5000 2.1744 0.0000 ( 85668 PWs)   bands (ev):

  -103.7222-103.6456-103.3996-103.3628-103.1317-102.6272 -68.8182 -68.4100
   -68.3213 -68.2529 -64.2695 -64.2081 -64.1489 -64.0776 -63.9850 -63.9608
   -63.9290 -63.9255 -63.8128 -63.7747 -63.6842 -63.6492 -63.6316 -63.6088
   -63.4141 -63.1520 -63.0410 -62.9733 -35.4017 -35.3066 -35.2304 -34.9743
   -34.9626 -34.9242 -34.8891 -34.8649 -34.8341 -34.8233 -34.7826 -34.7671
   -11.8650 -11.6898 -11.6767 -11.5584 -11.4555 -11.2992 -11.1870 -11.1253
   -11.0929 -10.8530  -6.4104  -6.2943  -6.1639  -6.0759  -5.6111  -5.3322
    -5.2200  -5.1163  -5.0004  -4.8363  -4.6808  -4.4764  -4.3279  -4.1382
    -4.0583  -3.9721  -3.8663  -3.7818  -3.7358  -3.6862  -3.5958  -3.5852
    -3.4823  -3.4192  -3.3336  -3.3151  -3.2621  -3.0693  -3.0035  -2.9414
    -2.7045  -2.6401  -2.6257  -2.5588  -2.4970  -2.4426  -2.3875  -2.3107
    -2.2542  -2.1778  -2.1008  -2.0360  -1.9257  -1.8902  -1.7951  -1.7159
    -1.6225  -1.5234  -1.4953  -1.3824  -1.3329  -1.3078  -1.1331  -1.0834
    -1.0573  -0.9558  -0.8571  -0.8166  -0.6099  -0.4632   0.4244   0.4802
     0.7843   1.0127   1.0830   1.2417   1.2845   1.4648   1.6947   1.8575
     1.9857   2.0614   2.1883   2.2601   2.4123   2.5285   2.9886   3.0553
     3.2025   3.2687   3.3595   3.5749

          k =-0.5000-2.7180 0.0000 ( 85712 PWs)   bands (ev):

  -103.7221-103.6457-103.3994-103.3630-103.1317-102.6272 -68.8178 -68.4096
   -68.3209 -68.2525 -64.2695 -64.2084 -64.1483 -64.0803 -63.9827 -63.9607
   -63.9292 -63.9260 -63.8118 -63.7780 -63.6816 -63.6499 -63.6316 -63.6088
   -63.4144 -63.1520 -63.0413 -62.9734 -35.4005 -35.3195 -35.2286 -34.9873
   -34.9616 -34.9224 -34.9023 -34.8637 -34.8373 -34.8317 -34.7813 -34.7653
   -11.6105 -11.5552 -11.4590 -11.3596 -11.3048 -11.2566 -11.0522 -11.0052
   -10.9746 -10.7502  -6.7111  -6.6250  -6.4710  -6.4064  -5.8885  -5.4220
    -5.3832  -5.2130  -5.1466  -5.1099  -4.4168  -4.2892  -4.2490  -4.0990
    -3.9928  -3.9639  -3.8247  -3.7633  -3.7264  -3.6723  -3.5919  -3.5661
    -3.4302  -3.3962  -3.2923  -3.2483  -3.1289  -3.0670  -3.0071  -2.8911
    -2.6696  -2.6278  -2.5759  -2.5254  -2.5160  -2.4540  -2.3741  -2.3036
    -2.2157  -2.1567  -2.1281  -2.0900  -2.0564  -1.9582  -1.8521  -1.8000
    -1.6328  -1.5965  -1.4526  -1.3938  -1.3282  -1.2752  -1.2460  -1.2302
    -1.0767  -0.9787  -0.8742  -0.8161  -0.7486  -0.5908   0.2983   0.4486
     0.8174   1.0440   1.0658   1.2521   1.2675   1.3836   1.7505   1.9634
     2.0423   2.1175   2.2972   2.4235   2.6304   2.6471   3.0485   3.1547
     3.2261   3.3367   3.4790   3.5667

     the Fermi energy is     0.1645 ev

!    total energy              =   -9109.65346415 Ry
     total all-electron energy =     -9109.653464 Ry
     estimated scf accuracy    <          2.9E-09 Ry
     smearing contrib. (-TS)   =      -0.00005039 Ry
     internal energy E=F+TS    =   -9109.65341376 Ry

     The total energy is F=E-TS. E is the sum of the following terms:
     one-electron contribution =  -16609.59569407 Ry
     hartree contribution      =    8163.40876231 Ry
     xc contribution           =    -365.60347471 Ry
     ewald contribution        =    5969.87629661 Ry
     one-center paw contrib.   =   -6267.73930390 Ry

     convergence has been achieved in  29 iterations

     negative rho (up, down):  6.622E-02 0.000E+00

     Forces acting on atoms (cartesian axes, Ry/au):

     atom    1 type  1   force =     0.04151759    0.03905586   -0.00714557
     atom    2 type  1   force =     0.00877762   -0.04563887    0.01879823
     atom    3 type  1   force =    -0.03870750    0.04798211   -0.01946369
     atom    4 type  1   force =    -0.02353086   -0.04640134    0.02284995
     atom    5 type  2   force =    -0.00246928    0.05310251   -0.01030962
     atom    6 type  2   force =    -0.01132923   -0.05217219    0.01150669
     atom    7 type  2   force =     0.01507607    0.05117762   -0.01384367
     atom    8 type  2   force =     0.02919708   -0.04954479    0.01060821
     atom    9 type  2   force =     0.00306636    0.02604281   -0.02037128
     atom   10 type  2   force =    -0.00811579   -0.02260443    0.00172126
     atom   11 type  3   force =     0.02853319   -0.03428083   -0.04538024
     atom   12 type  3   force =     0.00957787    0.03452047    0.04152130
     atom   13 type  3   force =    -0.00430141    0.02117269   -0.03462618
     atom   14 type  3   force =    -0.01667704   -0.02044107    0.04051481
     atom   15 type  3   force =    -0.00762634   -0.03617225   -0.04096645
     atom   16 type  3   force =    -0.01283100    0.03470758    0.04105605
     atom   17 type  3   force =     0.00267710    0.02134356   -0.03488047
     atom   18 type  3   force =     0.02602929   -0.02068089    0.00635736
     atom   19 type  3   force =    -0.04135917    0.02095998   -0.00004896
     atom   20 type  3   force =     0.00249544   -0.02212854    0.03210226

     Total force =     0.225693     Total SCF correction =     0.000188


     Computing stress (Cartesian axis) and pressure


     negative rho (up, down):  6.622E-02 0.000E+00
          total   stress  (Ry/bohr**3)                   (kbar)     P=       14.08
   0.00002852  -0.00000081   0.00000846            4.20       -0.12        1.24
  -0.00000081   0.00018203  -0.00002414           -0.12       26.78       -3.55
   0.00000846  -0.00002414   0.00007665            1.24       -3.55       11.28


     BFGS Geometry Optimization
     Energy error            =      0.0E+00 Ry
     Gradient error          =      5.3E-02 Ry/Bohr

     number of scf cycles    =   1
     number of bfgs steps    =   0

     energy             new  =   -9109.6534641525 Ry

     new trust radius        =       0.0646481902 bohr
     new conv_thr            =       0.0000000100 Ry


ATOMIC_POSITIONS (angstrom)
Ta           15.4138109898        0.9355910378       12.4400589624
Ta            6.5761954300        2.7206186336       12.6019439315
Ta            2.2446724889        0.9403146043       12.4333662201
Ta           11.0730013523        2.7202151517       12.6042481579
Ni           12.8631014736        0.9430242037       11.7562339812
Ni            4.0381049540        2.7171613449       13.2802330321
Ni            4.8004446352        0.9420055963       11.7540972017
Ni           13.6282110454        2.7185517078       13.2800146297
Ni            8.8299693117        0.9287048263       12.3574255821
Ni            0.0037822115        2.7328079317       12.6685206658
Te           14.2281414901        2.7266290453       10.5112425614
Te            5.3977902441        0.9331910121       14.5225442303
Te           10.5931569112        0.9261276711       10.5010104925
Te            1.7663249743        2.7339527331       14.5379344682
Te            3.4396530050        2.7256281485       10.5133550314
Te           12.2571996659        0.9332900248       14.5225184732
Te            7.0630350845        0.9262180881       10.5007133203
Te           15.8956760115        2.7338258233       14.5200312977
Te           -0.0135874050        0.9260151094       10.8375931547
Te            8.8298784892        2.7330597601       14.2151656056



     Writing config-only to output data dir /ddn/data/physics/eamoujaes/2D-Ta2Ni3Te5/ELASTIC/C12/OUT/ta2ni3te5.save/
     NEW-OLD atomic charge density approx. for the potential

     negative rho (up, down):  6.510E-02 0.000E+00

     total cpu time spent up to now is      620.6 secs

     Self-consistent Calculation

     iteration #  1     ecut=    60.00 Ry     beta= 0.20
     Davidson diagonalization with overlap
     ethr =  1.00E-06,  avg # of iterations = 13.4

     negative rho (up, down):  6.519E-02 0.000E+00

     total cpu time spent up to now is      669.9 secs

     total energy              =   -9109.65660431 Ry
     estimated scf accuracy    <       0.10188161 Ry

     iteration #  2     ecut=    60.00 Ry     beta= 0.20
     Davidson diagonalization with overlap
     ethr =  4.63E-05,  avg # of iterations =  3.0

     negative rho (up, down):  6.526E-02 0.000E+00

     total cpu time spent up to now is      688.1 secs

     total energy              =   -9109.66163936 Ry
     estimated scf accuracy    <       0.62118526 Ry

     iteration #  3     ecut=    60.00 Ry     beta= 0.20
     Davidson diagonalization with overlap
     ethr =  4.63E-05,  avg # of iterations =  2.0

     negative rho (up, down):  6.529E-02 0.000E+00

     total cpu time spent up to now is      704.4 secs

     total energy              =   -9109.69372971 Ry
     estimated scf accuracy    <       0.03436646 Ry

     iteration #  4     ecut=    60.00 Ry     beta= 0.20
     Davidson diagonalization with overlap
     ethr =  1.56E-05,  avg # of iterations =  1.2

     negative rho (up, down):  6.534E-02 0.000E+00

     total cpu time spent up to now is      720.2 secs

     total energy              =   -9109.69532540 Ry
     estimated scf accuracy    <       0.00906580 Ry

     iteration #  5     ecut=    60.00 Ry     beta= 0.20
     Davidson diagonalization with overlap
     ethr =  4.12E-06,  avg # of iterations =  1.4

     negative rho (up, down):  6.542E-02 0.000E+00

     total cpu time spent up to now is      739.7 secs

     total energy              =   -9109.69492233 Ry
     estimated scf accuracy    <       0.00737456 Ry

     iteration #  6     ecut=    60.00 Ry     beta= 0.20
     Davidson diagonalization with overlap
     ethr =  3.35E-06,  avg # of iterations =  1.1

     negative rho (up, down):  6.547E-02 0.000E+00

     total cpu time spent up to now is      754.9 secs

     total energy              =   -9109.69477874 Ry
     estimated scf accuracy    <       0.00269291 Ry

     iteration #  7     ecut=    60.00 Ry     beta= 0.20
     Davidson diagonalization with overlap
     ethr =  1.22E-06,  avg # of iterations =  2.6

     negative rho (up, down):  6.557E-02 0.000E+00

     total cpu time spent up to now is      771.4 secs

     total energy              =   -9109.69447060 Ry
     estimated scf accuracy    <       0.00150194 Ry

     iteration #  8     ecut=    60.00 Ry     beta= 0.20
     Davidson diagonalization with overlap
     ethr =  6.83E-07,  avg # of iterations =  2.6

     negative rho (up, down):  6.561E-02 0.000E+00

     total cpu time spent up to now is      787.9 secs

     total energy              =   -9109.69440233 Ry
     estimated scf accuracy    <       0.00112785 Ry

     iteration #  9     ecut=    60.00 Ry     beta= 0.20
     Davidson diagonalization with overlap
     ethr =  5.13E-07,  avg # of iterations =  1.1

     negative rho (up, down):  6.565E-02 0.000E+00

     total cpu time spent up to now is      803.2 secs

     total energy              =   -9109.69438685 Ry
     estimated scf accuracy    <       0.00033544 Ry

     iteration # 10     ecut=    60.00 Ry     beta= 0.20
     Davidson diagonalization with overlap
     ethr =  1.52E-07,  avg # of iterations =  1.1

     negative rho (up, down):  6.569E-02 0.000E+00

     total cpu time spent up to now is      818.4 secs

     total energy              =   -9109.69437349 Ry
     estimated scf accuracy    <       0.00012544 Ry

     iteration # 11     ecut=    60.00 Ry     beta= 0.20
     Davidson diagonalization with overlap
     ethr =  5.70E-08,  avg # of iterations =  2.0

     negative rho (up, down):  6.571E-02 0.000E+00

     total cpu time spent up to now is      834.6 secs

     total energy              =   -9109.69437663 Ry
     estimated scf accuracy    <       0.00003512 Ry

     iteration # 12     ecut=    60.00 Ry     beta= 0.20
     Davidson diagonalization with overlap
     ethr =  1.60E-08,  avg # of iterations =  2.0

     negative rho (up, down):  6.571E-02 0.000E+00

     total cpu time spent up to now is      851.6 secs

     total energy              =   -9109.69438039 Ry
     estimated scf accuracy    <       0.00000769 Ry

     iteration # 13     ecut=    60.00 Ry     beta= 0.20
     Davidson diagonalization with overlap
     ethr =  3.50E-09,  avg # of iterations =  2.2

     negative rho (up, down):  6.572E-02 0.000E+00

     total cpu time spent up to now is      868.7 secs

     total energy              =   -9109.69438165 Ry
     estimated scf accuracy    <       0.00000836 Ry

     iteration # 14     ecut=    60.00 Ry     beta= 0.20
     Davidson diagonalization with overlap
     ethr =  3.50E-09,  avg # of iterations =  1.0

     negative rho (up, down):  6.573E-02 0.000E+00

     total cpu time spent up to now is      887.8 secs

     total energy              =   -9109.69438275 Ry
     estimated scf accuracy    <       0.00000316 Ry

     iteration # 15     ecut=    60.00 Ry     beta= 0.20
     Davidson diagonalization with overlap
     ethr =  1.44E-09,  avg # of iterations =  2.0

     negative rho (up, down):  6.573E-02 0.000E+00

     total cpu time spent up to now is      905.1 secs

     total energy              =   -9109.69438314 Ry
     estimated scf accuracy    <       0.00000169 Ry

     iteration # 16     ecut=    60.00 Ry     beta= 0.20
     Davidson diagonalization with overlap
     ethr =  7.70E-10,  avg # of iterations =  1.5

     negative rho (up, down):  6.573E-02 0.000E+00

     total cpu time spent up to now is      921.1 secs

     total energy              =   -9109.69438278 Ry
     estimated scf accuracy    <       0.00000114 Ry

     iteration # 17     ecut=    60.00 Ry     beta= 0.20
     Davidson diagonalization with overlap
     ethr =  5.19E-10,  avg # of iterations =  1.2

     negative rho (up, down):  6.573E-02 0.000E+00

     total cpu time spent up to now is      943.0 secs

     total energy              =   -9109.69438283 Ry
     estimated scf accuracy    <       0.00000014 Ry

     iteration # 18     ecut=    60.00 Ry     beta= 0.20
     Davidson diagonalization with overlap
     ethr =  6.52E-11,  avg # of iterations =  2.2

     negative rho (up, down):  6.572E-02 0.000E+00

     total cpu time spent up to now is      959.9 secs

     total energy              =   -9109.69438286 Ry
     estimated scf accuracy    <       0.00000012 Ry

     iteration # 19     ecut=    60.00 Ry     beta= 0.20
     Davidson diagonalization with overlap
     ethr =  5.39E-11,  avg # of iterations =  1.0

     negative rho (up, down):  6.572E-02 0.000E+00

     total cpu time spent up to now is      975.0 secs

     total energy              =   -9109.69438286 Ry
     estimated scf accuracy    <       0.00000005 Ry

     iteration # 20     ecut=    60.00 Ry     beta= 0.20
     Davidson diagonalization with overlap
     ethr =  2.45E-11,  avg # of iterations =  1.8

     negative rho (up, down):  6.572E-02 0.000E+00

     total cpu time spent up to now is      993.7 secs

     total energy              =   -9109.69438287 Ry
     estimated scf accuracy    <       0.00000003 Ry

     iteration # 21     ecut=    60.00 Ry     beta= 0.20
     Davidson diagonalization with overlap
     ethr =  1.48E-11,  avg # of iterations =  2.0

     negative rho (up, down):  6.572E-02 0.000E+00

     total cpu time spent up to now is     1010.3 secs

     total energy              =   -9109.69438287 Ry
     estimated scf accuracy    <       0.00000001 Ry

     iteration # 22     ecut=    60.00 Ry     beta= 0.20
     Davidson diagonalization with overlap
     ethr =  6.24E-12,  avg # of iterations =  1.6

     negative rho (up, down):  6.572E-02 0.000E+00

     total cpu time spent up to now is     1025.8 secs

     End of self-consistent calculation

          k = 0.0000 0.0000 0.0000 ( 85239 PWs)   bands (ev):

  -103.6626-103.5803-103.3668-103.3227-103.1158-102.6462 -68.8305 -68.4340
   -68.3474 -68.2982 -64.2055 -64.1364 -64.0852 -63.9707 -63.9571 -63.9228
   -63.8849 -63.8649 -63.7702 -63.6944 -63.6846 -63.6152 -63.6146 -63.5967
   -63.3890 -63.1689 -63.0528 -62.9961 -35.4127 -35.2492 -35.1763 -34.9847
   -34.9525 -34.8938 -34.8615 -34.8456 -34.8264 -34.8146 -34.7651 -34.7124
   -13.2602 -13.0276 -12.7117 -12.4899 -12.3350 -12.1163 -12.0745 -11.9240
   -11.7807 -11.7383  -6.4512  -6.2311  -5.9892  -5.8400  -5.7447  -5.5687
    -5.3639  -4.9431  -4.8046  -4.4449  -4.2823  -4.1286  -4.0309  -3.9705
    -3.8674  -3.7515  -3.5692  -3.5270  -3.4210  -3.3144  -3.2287  -3.0791
    -2.8645  -2.7776  -2.7415  -2.6488  -2.5754  -2.4758  -2.4748  -2.3853
    -2.2543  -2.1704  -2.1115  -2.0691  -2.0221  -2.0144  -1.8998  -1.8817
    -1.7765  -1.7373  -1.5528  -1.5263  -1.4611  -1.4212  -1.2991  -1.2972
    -1.1439  -1.0668  -0.9826  -0.9542  -0.7680  -0.7491  -0.6187  -0.5754
    -0.4787  -0.4356  -0.3780  -0.2196  -0.1590   0.0388   0.3049   0.4129
     0.9807   1.0300   1.1420   1.2871   1.3165   1.3545   1.3864   1.6916
     1.7884   1.8306   2.2102   2.3335   2.6601   2.7008   2.8513   3.2021
     3.3893   3.4813   3.6024   3.6351

          k = 0.0000 0.5436 0.0000 ( 85370 PWs)   bands (ev):

  -103.6625-103.5803-103.3667-103.3228-103.1158-102.6462 -68.8301 -68.4336
   -68.3470 -68.2978 -64.2056 -64.1366 -64.0853 -63.9787 -63.9497 -63.9228
   -63.8850 -63.8650 -63.7705 -63.7031 -63.6765 -63.6153 -63.6145 -63.5967
   -63.3896 -63.1688 -63.0534 -62.9961 -35.4115 -35.2473 -35.1896 -34.9834
   -34.9506 -34.8924 -34.8598 -34.8592 -34.8251 -34.8128 -34.7788 -34.7260
   -13.1457 -12.9145 -12.6090 -12.3996 -12.2617 -12.0333 -11.9971 -11.8551
   -11.6999 -11.6790  -6.3425  -6.1234  -5.8664  -5.7289  -5.6279  -5.4395
    -5.2499  -4.8556  -4.7156  -4.4132  -4.2627  -4.1480  -4.0755  -4.0192
    -3.9194  -3.8088  -3.6416  -3.5286  -3.4052  -3.3239  -3.2293  -3.0535
    -3.0096  -2.8849  -2.8211  -2.7600  -2.7449  -2.6275  -2.4807  -2.4233
    -2.3201  -2.2853  -2.2306  -2.1145  -2.0707  -2.0201  -1.9703  -1.8947
    -1.8411  -1.7889  -1.6443  -1.5506  -1.5173  -1.4463  -1.4246  -1.3160
    -1.2433  -1.2058  -1.0934  -1.0114  -0.9396  -0.8343  -0.8019  -0.7125
    -0.6303  -0.5761  -0.4097  -0.3344  -0.0264   0.0775   0.1931   0.5175
     0.6977   0.8875   1.0850   1.1979   1.2307   1.2578   1.3340   1.4416
     1.6037   1.8729   2.0745   2.2701   2.3518   2.5083   2.7466   3.0538
     3.1691   3.2375   3.3547   3.4394

          k = 0.0000 1.0872 0.0000 ( 85486 PWs)   bands (ev):

  -103.6623-103.5805-103.3663-103.3232-103.1158-102.6461 -68.8291 -68.4325
   -68.3459 -68.2968 -64.2055 -64.1370 -64.0849 -63.9902 -63.9391 -63.9226
   -63.8852 -63.8659 -63.7701 -63.7149 -63.6659 -63.6162 -63.6145 -63.5966
   -63.3905 -63.1689 -63.0542 -62.9960 -35.4084 -35.2428 -35.2239 -34.9800
   -34.9456 -34.8949 -34.8886 -34.8552 -34.8216 -34.8142 -34.8081 -34.7615
   -12.8163 -12.5905 -12.3198 -12.1557 -12.0513 -11.8046 -11.7732 -11.6617
   -11.5180 -11.4691  -6.0564  -5.8358  -5.5523  -5.4745  -5.3019  -5.1172
    -4.9531  -4.7527  -4.5359  -4.4835  -4.3280  -4.2567  -4.1991  -4.1636
    -4.0439  -3.9457  -3.8183  -3.6243  -3.5755  -3.4749  -3.4144  -3.3723
    -3.2717  -3.1041  -3.0503  -2.9235  -2.8474  -2.7591  -2.7196  -2.6397
    -2.5702  -2.4937  -2.4272  -2.3793  -2.3215  -2.2091  -2.1568  -2.0623
    -1.9935  -1.9551  -1.8472  -1.7603  -1.6477  -1.6054  -1.5286  -1.4788
    -1.4112  -1.3782  -1.2467  -1.1654  -1.0837  -1.0673  -1.0250  -0.8950
    -0.8350  -0.7202  -0.5171  -0.4242  -0.3378  -0.0777   0.3665   0.5982
     0.7540   0.8158   0.9167   1.0544   1.0919   1.2260   1.2928   1.3989
     1.5789   1.7569   1.8236   2.0158   2.2002   2.3782   2.4995   2.6943
     2.7924   2.9922   3.3396   3.8252

          k = 0.0000 1.6308 0.0000 ( 85556 PWs)   bands (ev):

  -103.6620-103.5808-103.3658-103.3237-103.1158-102.6461 -68.8278 -68.4312
   -68.3446 -68.2955 -64.2055 -64.1377 -64.0838 -64.0003 -63.9300 -63.9225
   -63.8856 -63.8669 -63.7688 -63.7257 -63.6566 -63.6174 -63.6144 -63.5966
   -63.3914 -63.1688 -63.0551 -62.9960 -35.4046 -35.2676 -35.2355 -34.9758
   -34.9441 -34.9339 -34.8840 -34.8604 -34.8470 -34.8175 -34.8078 -34.7990
   -12.3215 -12.1105 -11.9232 -11.8279 -11.7387 -11.5143 -11.4305 -11.3760
   -11.2996 -11.1479  -5.8247  -5.6083  -5.5279  -5.3753  -5.2432  -5.1100
    -4.9926  -4.9212  -4.8125  -4.5701  -4.4577  -4.3605  -4.2988  -4.2054
    -4.1586  -4.1140  -3.9494  -3.8442  -3.7852  -3.6653  -3.6300  -3.6021
    -3.5491  -3.2582  -3.1578  -3.1181  -3.0477  -2.9873  -2.9007  -2.7879
    -2.7572  -2.6392  -2.5909  -2.5711  -2.5015  -2.3332  -2.2770  -2.2133
    -2.1548  -2.0353  -1.9668  -1.8946  -1.7885  -1.7170  -1.6334  -1.5997
    -1.5092  -1.4223  -1.3626  -1.3263  -1.2576  -1.1899  -1.1337  -1.0106
    -0.9737  -0.8601  -0.7101  -0.5917  -0.4988  -0.3042   0.5851   0.6378
     0.6897   0.8204   1.0508   1.1031   1.3502   1.3736   1.4233   1.5852
     1.6326   1.7284   1.8538   2.0395   2.1786   2.5263   2.5800   2.7941
     3.0470   3.0945   3.4206   3.8193

          k = 0.0000 2.1744 0.0000 ( 85610 PWs)   bands (ev):

  -103.6618-103.5809-103.3654-103.3240-103.1158-102.6461 -68.8268 -68.4301
   -68.3435 -68.2944 -64.2056 -64.1383 -64.0827 -64.0073 -63.9237 -63.9224
   -63.8858 -63.8680 -63.7670 -63.7338 -63.6499 -63.6189 -63.6144 -63.5966
   -63.3921 -63.1687 -63.0558 -62.9960 -35.4014 -35.3016 -35.2307 -34.9757
   -34.9720 -34.9327 -34.8950 -34.8796 -34.8441 -34.8407 -34.8135 -34.7962
   -11.7804 -11.6199 -11.6052 -11.4947 -11.3997 -11.2690 -11.1349 -11.0923
   -11.0566 -10.8679  -6.3069  -6.2134  -6.1041  -6.0310  -5.5587  -5.2610
    -5.1530  -5.0829  -4.9554  -4.8207  -4.6089  -4.4402  -4.2890  -4.1038
    -3.9833  -3.8764  -3.7854  -3.7243  -3.6966  -3.6581  -3.6092  -3.5041
    -3.4776  -3.3994  -3.3155  -3.2740  -3.2141  -3.0035  -2.9002  -2.8444
    -2.7527  -2.6159  -2.5583  -2.5313  -2.4399  -2.3488  -2.3451  -2.2559
    -2.2263  -2.0976  -2.0494  -2.0172  -1.9078  -1.8483  -1.7782  -1.6861
    -1.5975  -1.4851  -1.4761  -1.3658  -1.3097  -1.2913  -1.1670  -1.0799
    -0.9999  -0.9464  -0.8703  -0.8001  -0.6343  -0.4678   0.4141   0.4897
     0.7602   0.9131   1.0557   1.1545   1.3379   1.5926   1.6382   1.8816
     1.9237   2.0110   2.1814   2.2862   2.3716   2.5427   2.9294   3.0119
     3.1707   3.2129   3.4986   3.5418

          k = 0.0000-2.7180 0.0000 ( 85712 PWs)   bands (ev):

  -103.6617-103.5810-103.3652-103.3242-103.1158-102.6461 -68.8264 -68.4297
   -68.3431 -68.2940 -64.2057 -64.1386 -64.0822 -64.0099 -63.9224 -63.9216
   -63.8860 -63.8686 -63.7661 -63.7370 -63.6475 -63.6198 -63.6145 -63.5966
   -63.3924 -63.1688 -63.0561 -62.9961 -35.4002 -35.3146 -35.2288 -34.9886
   -34.9711 -34.9309 -34.9081 -34.8784 -34.8547 -34.8415 -34.8122 -34.7943
   -11.5097 -11.4871 -11.3898 -11.2944 -11.2413 -11.2277 -11.0027 -10.9677
   -10.9401 -10.7740  -6.6075  -6.5451  -6.4101  -6.3654  -5.8488  -5.4164
    -5.3195  -5.1678  -5.1020  -5.0577  -4.3338  -4.2378  -4.1905  -4.0624
    -3.9911  -3.9067  -3.7318  -3.6935  -3.6812  -3.6407  -3.5447  -3.5356
    -3.3780  -3.3256  -3.2643  -3.1936  -3.0692  -3.0324  -2.9554  -2.8938
    -2.6476  -2.6182  -2.5328  -2.4627  -2.4479  -2.3703  -2.3261  -2.2306
    -2.1581  -2.1228  -2.0703  -2.0617  -2.0453  -1.9081  -1.8444  -1.7524
    -1.6191  -1.5513  -1.4107  -1.3742  -1.2898  -1.2815  -1.2441  -1.2082
    -1.0381  -0.9721  -0.8857  -0.8439  -0.7589  -0.6147   0.3109   0.4391
     0.8082   0.9745   1.0246   1.1774   1.3267   1.4369   1.7161   1.8471
     2.0445   2.1870   2.2541   2.3316   2.6108   2.7010   2.9892   3.1514
     3.2145   3.3528   3.4668   3.5057

          k =-0.5000 0.0000 0.0000 ( 85168 PWs)   bands (ev):

  -103.6626-103.5803-103.3668-103.3227-103.1158-102.6462 -68.8305 -68.4340
   -68.3474 -68.2982 -64.2054 -64.1362 -64.0852 -63.9707 -63.9571 -63.9227
   -63.8848 -63.8648 -63.7702 -63.6944 -63.6846 -63.6151 -63.6145 -63.5966
   -63.3890 -63.1688 -63.0528 -62.9960 -35.4127 -35.2492 -35.1763 -34.9847
   -34.9525 -34.8938 -34.8615 -34.8456 -34.8264 -34.8146 -34.7651 -34.7124
   -13.2544 -13.0468 -12.6787 -12.5005 -12.3353 -12.1407 -12.0963 -11.8514
   -11.8003 -11.7536  -6.4445  -6.2455  -5.9894  -5.8960  -5.7299  -5.4938
    -5.3071  -4.9972  -4.8206  -4.5946  -4.1659  -4.0850  -4.0463  -3.9302
    -3.8404  -3.7502  -3.5742  -3.5298  -3.4390  -3.3385  -3.3097  -3.0798
    -2.8631  -2.8043  -2.7321  -2.6512  -2.5339  -2.4746  -2.4222  -2.3590
    -2.2627  -2.1823  -2.1151  -2.0847  -2.0342  -2.0157  -1.9328  -1.8746
    -1.7790  -1.7018  -1.5378  -1.5346  -1.4706  -1.4372  -1.3046  -1.2822
    -1.1378  -1.0507  -0.9628  -0.8792  -0.8135  -0.7651  -0.6666  -0.5550
    -0.4856  -0.4310  -0.3821  -0.2248  -0.1501   0.0161   0.3226   0.5165
     0.8533   0.9575   1.1193   1.2557   1.3129   1.3613   1.4235   1.6686
     1.8182   1.9156   2.2089   2.2375   2.7111   2.7369   2.8387   3.3253
     3.3920   3.4573   3.5320   3.6769

          k =-0.5000 0.5436 0.0000 ( 85298 PWs)   bands (ev):

  -103.6625-103.5803-103.3667-103.3228-103.1158-102.6462 -68.8301 -68.4336
   -68.3470 -68.2978 -64.2054 -64.1364 -64.0853 -63.9786 -63.9497 -63.9226
   -63.8849 -63.8650 -63.7705 -63.7030 -63.6765 -63.6153 -63.6145 -63.5966
   -63.3895 -63.1688 -63.0533 -62.9960 -35.4115 -35.2473 -35.1896 -34.9834
   -34.9506 -34.8924 -34.8598 -34.8592 -34.8251 -34.8128 -34.7788 -34.7260
   -13.1401 -12.9332 -12.5783 -12.4062 -12.2630 -12.0604 -12.0178 -11.7845
   -11.7219 -11.6893  -6.3359  -6.1374  -5.8669  -5.7814  -5.6118  -5.3657
    -5.1937  -4.8917  -4.7659  -4.5461  -4.1939  -4.1382  -4.0448  -3.9713
    -3.8536  -3.8013  -3.6443  -3.5522  -3.4396  -3.3751  -3.2528  -3.0721
    -3.0173  -2.8778  -2.8196  -2.7763  -2.7293  -2.5583  -2.4773  -2.4477
    -2.3085  -2.2489  -2.2114  -2.1379  -2.0987  -2.0351  -1.9860  -1.9125
    -1.8248  -1.7604  -1.6574  -1.5575  -1.5163  -1.4488  -1.4167  -1.3298
    -1.2503  -1.1618  -1.0715  -0.9895  -0.9396  -0.8796  -0.7746  -0.7289
    -0.6403  -0.5815  -0.4165  -0.3381  -0.0297   0.1306   0.1896   0.5119
     0.7698   0.8579   1.0161   1.1378   1.2309   1.2711   1.3598   1.4029
     1.5746   1.9256   2.0030   2.2815   2.3820   2.4404   2.8534   3.0506
     3.1401   3.2635   3.3198   3.5900

          k =-0.5000 1.0872 0.0000 ( 85474 PWs)   bands (ev):

  -103.6623-103.5805-103.3663-103.3232-103.1158-102.6461 -68.8291 -68.4325
   -68.3459 -68.2968 -64.2055 -64.1370 -64.0848 -63.9902 -63.9391 -63.9226
   -63.8852 -63.8658 -63.7701 -63.7149 -63.6658 -63.6161 -63.6145 -63.5966
   -63.3905 -63.1688 -63.0542 -62.9961 -35.4084 -35.2428 -35.2239 -34.9800
   -34.9456 -34.8949 -34.8886 -34.8552 -34.8216 -34.8142 -34.8081 -34.7615
   -12.8115 -12.6073 -12.2975 -12.1498 -12.0554 -11.8290 -11.7997 -11.5970
   -11.5407 -11.4720  -6.0490  -5.8496  -5.5534  -5.5024  -5.2871  -5.0542
    -4.9270  -4.7545  -4.6150  -4.5522  -4.3323  -4.2851  -4.1913  -4.1451
    -3.9265  -3.8440  -3.8035  -3.6902  -3.5985  -3.5107  -3.4366  -3.3831
    -3.2552  -3.1148  -3.0210  -2.9992  -2.8890  -2.7632  -2.6403  -2.6070
    -2.5655  -2.5099  -2.4365  -2.3632  -2.3231  -2.2328  -2.1664  -2.0595
    -1.9877  -1.9586  -1.8314  -1.7484  -1.6470  -1.6025  -1.5335  -1.4720
    -1.4248  -1.3133  -1.2821  -1.2170  -1.1360  -1.0350  -0.9833  -0.9183
    -0.8447  -0.7225  -0.4827  -0.4110  -0.3325  -0.0828   0.4088   0.5955
     0.7640   0.7929   0.9920   1.0627   1.0985   1.1661   1.3446   1.3804
     1.4468   1.6553   1.8632   1.9904   2.2263   2.4235   2.5310   2.6973
     2.7477   2.9505   3.4065   3.9100

          k =-0.5000 1.6308 0.0000 ( 85608 PWs)   bands (ev):

  -103.6620-103.5808-103.3658-103.3237-103.1158-102.6461 -68.8278 -68.4312
   -68.3446 -68.2955 -64.2056 -64.1378 -64.0838 -64.0003 -63.9300 -63.9226
   -63.8857 -63.8669 -63.7688 -63.7258 -63.6566 -63.6174 -63.6144 -63.5967
   -63.3914 -63.1688 -63.0551 -62.9961 -35.4046 -35.2676 -35.2355 -34.9758
   -34.9441 -34.9339 -34.8840 -34.8604 -34.8470 -34.8175 -34.8078 -34.7990
   -12.3181 -12.1230 -11.9180 -11.8127 -11.7411 -11.5073 -11.4775 -11.3289
   -11.3153 -11.1481  -5.8148  -5.6276  -5.5100  -5.3633  -5.2581  -5.1304
    -5.0041  -4.9204  -4.8023  -4.5789  -4.4909  -4.3422  -4.3110  -4.1481
    -4.1062  -4.0445  -3.9746  -3.9217  -3.8256  -3.7110  -3.6492  -3.5353
    -3.4381  -3.2835  -3.2447  -3.1229  -3.0373  -2.9846  -2.9635  -2.8000
    -2.6746  -2.6232  -2.5944  -2.5622  -2.5179  -2.3578  -2.2714  -2.2129
    -2.1431  -2.0454  -1.9610  -1.9283  -1.7711  -1.7013  -1.6305  -1.5898
    -1.5036  -1.4159  -1.3776  -1.3318  -1.2773  -1.1904  -1.0990  -1.0107
    -0.9965  -0.8598  -0.7139  -0.5950  -0.4967  -0.3065   0.5744   0.6540
     0.7492   0.8990   1.0772   1.1244   1.2526   1.3583   1.4111   1.4868
     1.6353   1.7349   1.8611   1.9768   2.2510   2.4627   2.7158   2.8024
     2.9308   3.0473   3.5138   3.9307

          k =-0.5000 2.1744 0.0000 ( 85668 PWs)   bands (ev):

  -103.6618-103.5809-103.3654-103.3240-103.1158-102.6461 -68.8268 -68.4301
   -68.3435 -68.2944 -64.2056 -64.1384 -64.0827 -64.0074 -63.9237 -63.9224
   -63.8859 -63.8681 -63.7671 -63.7339 -63.6500 -63.6190 -63.6144 -63.5966
   -63.3921 -63.1688 -63.0558 -62.9961 -35.4014 -35.3016 -35.2307 -34.9757
   -34.9720 -34.9327 -34.8950 -34.8796 -34.8441 -34.8407 -34.8135 -34.7962
   -11.7792 -11.6232 -11.6047 -11.4954 -11.3984 -11.2614 -11.1493 -11.0782
   -11.0632 -10.8675  -6.3122  -6.2234  -6.0894  -6.0188  -5.5685  -5.2604
    -5.1740  -5.0839  -4.9488  -4.7938  -4.6272  -4.4394  -4.2703  -4.1098
    -3.9897  -3.9104  -3.8067  -3.7189  -3.7026  -3.6545  -3.5558  -3.5416
    -3.4412  -3.3969  -3.2859  -3.2718  -3.1981  -3.0034  -2.9683  -2.8846
    -2.6626  -2.5988  -2.5452  -2.5170  -2.4633  -2.4057  -2.3387  -2.2584
    -2.2175  -2.1464  -2.0551  -2.0092  -1.8875  -1.8561  -1.7505  -1.6888
    -1.5991  -1.4945  -1.4692  -1.3786  -1.3051  -1.2963  -1.1149  -1.0757
    -1.0611  -0.9507  -0.8604  -0.8041  -0.6287  -0.4780   0.4403   0.4707
     0.7879   1.0033   1.0505   1.2226   1.2652   1.4505   1.6835   1.8256
     1.9832   2.0365   2.1613   2.2312   2.3825   2.5195   2.9628   3.0508
     3.1903   3.2451   3.3469   3.5582

          k =-0.5000-2.7180 0.0000 ( 85712 PWs)   bands (ev):

  -103.6617-103.5810-103.3652-103.3242-103.1158-102.6461 -68.8264 -68.4297
   -68.3431 -68.2940 -64.2057 -64.1386 -64.0823 -64.0099 -63.9224 -63.9215
   -63.8860 -63.8685 -63.7661 -63.7370 -63.6475 -63.6198 -63.6144 -63.5967
   -63.3924 -63.1688 -63.0561 -62.9961 -35.4002 -35.3146 -35.2288 -34.9886
   -34.9711 -34.9309 -34.9081 -34.8784 -34.8547 -34.8415 -34.8122 -34.7943
   -11.5097 -11.4871 -11.3899 -11.2945 -11.2411 -11.2272 -11.0073 -10.9601
   -10.9437 -10.7738  -6.6156  -6.5572  -6.3960  -6.3511  -5.8542  -5.3873
    -5.3588  -5.1638  -5.0953  -5.0631  -4.3439  -4.2381  -4.1941  -4.0316
    -3.9736  -3.9054  -3.7604  -3.7002  -3.6792  -3.6545  -3.5613  -3.5345
    -3.3949  -3.3530  -3.2380  -3.1929  -3.0546  -3.0083  -2.9703  -2.8372
    -2.6160  -2.5962  -2.5130  -2.4871  -2.4367  -2.4266  -2.3378  -2.2392
    -2.1749  -2.1337  -2.0774  -2.0643  -2.0407  -1.8880  -1.8357  -1.7536
    -1.6230  -1.5605  -1.4222  -1.3854  -1.3044  -1.2672  -1.2328  -1.1955
    -1.0665  -0.9814  -0.8879  -0.8279  -0.7500  -0.6073   0.3158   0.4386
     0.8229   1.0189   1.0355   1.2200   1.2627   1.3427   1.7434   1.9323
     2.0024   2.1009   2.2820   2.3906   2.5935   2.6271   3.0474   3.1728
     3.2438   3.3292   3.4904   3.5590

     the Fermi energy is     0.1576 ev

!    total energy              =   -9109.69438287 Ry
     total all-electron energy =     -9109.694383 Ry
     estimated scf accuracy    <          4.3E-09 Ry
     smearing contrib. (-TS)   =      -0.00009106 Ry
     internal energy E=F+TS    =   -9109.69429181 Ry

     The total energy is F=E-TS. E is the sum of the following terms:
     one-electron contribution =  -16555.32062991 Ry
     hartree contribution      =    8136.39505032 Ry
     xc contribution           =    -365.40484161 Ry
     ewald contribution        =    5942.36777902 Ry
     one-center paw contrib.   =   -6267.73164963 Ry

     convergence has been achieved in  22 iterations

     negative rho (up, down):  6.572E-02 0.000E+00

     Forces acting on atoms (cartesian axes, Ry/au):

     atom    1 type  1   force =     0.03229462    0.02439788   -0.00924043
     atom    2 type  1   force =     0.00404210   -0.02607918    0.00972963
     atom    3 type  1   force =    -0.02799084    0.02651271   -0.01038348
     atom    4 type  1   force =    -0.01239342   -0.02572572    0.01250717
     atom    5 type  2   force =     0.00352856    0.02611280   -0.00753773
     atom    6 type  2   force =    -0.00841124   -0.02580598    0.00780879
     atom    7 type  2   force =     0.00682801    0.02561196   -0.00938247
     atom    8 type  2   force =     0.01968132   -0.02529731    0.00712515
     atom    9 type  2   force =     0.00227014    0.01771016   -0.01375348
     atom   10 type  2   force =    -0.00725774   -0.01753259    0.00235668
     atom   11 type  3   force =     0.02402209   -0.01836289   -0.02908433
     atom   12 type  3   force =     0.00532670    0.01889338    0.02902475
     atom   13 type  3   force =     0.00014498    0.01264690   -0.01974815
     atom   14 type  3   force =    -0.01256640   -0.01222229    0.02337676
     atom   15 type  3   force =    -0.00582926   -0.01940709   -0.02640276
     atom   16 type  3   force =    -0.00708827    0.01862921    0.02664285
     atom   17 type  3   force =     0.00021435    0.01293298   -0.02050024
     atom   18 type  3   force =     0.02479363   -0.01438386    0.00187233
     atom   19 type  3   force =    -0.04219169    0.01650673    0.00137617
     atom   20 type  3   force =     0.00058238   -0.01513779    0.02421279

     Total force =     0.142342     Total SCF correction =     0.000232


     Computing stress (Cartesian axis) and pressure


     negative rho (up, down):  6.572E-02 0.000E+00
          total   stress  (Ry/bohr**3)                   (kbar)     P=        9.31
   0.00000379  -0.00000022   0.00000933            0.56       -0.03        1.37
  -0.00000022   0.00015114  -0.00001733           -0.03       22.23       -2.55
   0.00000933  -0.00001733   0.00003502            1.37       -2.55        5.15

     Energy error            =      4.1E-02 Ry
     Gradient error          =      4.2E-02 Ry/Bohr

     number of scf cycles    =   2
     number of bfgs steps    =   1

     energy             old  =   -9109.6534641525 Ry
     energy             new  =   -9109.6943828691 Ry

     CASE: energy            _new < energy            _old

     new trust radius        =       0.0711130092 bohr
     new conv_thr            =       0.0000000042 Ry


ATOMIC_POSITIONS (angstrom)
Ta           15.4409201869        0.9563360045       12.4324650890
Ta            6.5797117017        2.6983102184       12.6103276968
Ta            2.2210823582        0.9630483773       12.4244396108
Ta           11.0623365118        2.6981615737       12.6149800326
Ni           12.8658224636        0.9656161210       11.7498852506
Ni            4.0310265269        2.6948454176       13.2868384920
Ni            4.8063929680        0.9641330197       11.7461599479
Ni           13.6448662063        2.6967306634       13.2860455401
Ni            8.8318800308        0.9436839965       12.3457879071
Ni           -0.0022683935        2.7180882576       12.6704539259
Te           14.2482256282        2.7108474166       10.4865533266
Te            5.4023555695        0.9494027386       14.5470533328
Te           10.5931242201        0.9369129583       10.4841154174
Te            1.7557583582        2.7235302670       14.5579176233
Te            3.4347551735        2.7089510943       10.4909500452
Te           12.2511216077        0.9492981150       14.5451174683
Te            7.0632976323        0.9372367480       10.4832114220
Te           15.9162875386        2.7216762120       14.5217388956
Te           -0.0485613748        0.9398624413       10.8386858077
Te            8.8304274493        2.7202608131       14.2355241682



     Writing config-only to output data dir /ddn/data/physics/eamoujaes/2D-Ta2Ni3Te5/ELASTIC/C12/OUT/ta2ni3te5.save/
     NEW-OLD atomic charge density approx. for the potential

     negative rho (up, down):  6.450E-02 0.000E+00

     total cpu time spent up to now is     1102.4 secs

     Self-consistent Calculation

     iteration #  1     ecut=    60.00 Ry     beta= 0.20
     Davidson diagonalization with overlap
     ethr =  1.00E-06,  avg # of iterations = 14.4

     negative rho (up, down):  6.461E-02 0.000E+00

     total cpu time spent up to now is     1151.8 secs

     total energy              =   -9109.69734260 Ry
     estimated scf accuracy    <       0.06071812 Ry

     iteration #  2     ecut=    60.00 Ry     beta= 0.20
     Davidson diagonalization with overlap
     ethr =  2.76E-05,  avg # of iterations =  3.0

     negative rho (up, down):  6.468E-02 0.000E+00

     total cpu time spent up to now is     1173.6 secs

     total energy              =   -9109.70315911 Ry
     estimated scf accuracy    <       0.30090280 Ry

     iteration #  3     ecut=    60.00 Ry     beta= 0.20
     Davidson diagonalization with overlap
     ethr =  2.76E-05,  avg # of iterations =  2.0

     negative rho (up, down):  6.471E-02 0.000E+00

     total cpu time spent up to now is     1202.0 secs

     total energy              =   -9109.71869578 Ry
     estimated scf accuracy    <       0.03252241 Ry

     iteration #  4     ecut=    60.00 Ry     beta= 0.20
     Davidson diagonalization with overlap
     ethr =  1.48E-05,  avg # of iterations =  1.0

     negative rho (up, down):  6.476E-02 0.000E+00

     total cpu time spent up to now is     1218.6 secs

     total energy              =   -9109.71994374 Ry
     estimated scf accuracy    <       0.00612423 Ry

     iteration #  5     ecut=    60.00 Ry     beta= 0.20
     Davidson diagonalization with overlap
     ethr =  2.78E-06,  avg # of iterations =  1.9

     negative rho (up, down):  6.485E-02 0.000E+00

     total cpu time spent up to now is     1234.7 secs

     total energy              =   -9109.71966158 Ry
     estimated scf accuracy    <       0.00496265 Ry

     iteration #  6     ecut=    60.00 Ry     beta= 0.20
     Davidson diagonalization with overlap
     ethr =  2.26E-06,  avg # of iterations =  1.0

     negative rho (up, down):  6.492E-02 0.000E+00

     total cpu time spent up to now is     1253.5 secs

     total energy              =   -9109.71959653 Ry
     estimated scf accuracy    <       0.00161311 Ry

     iteration #  7     ecut=    60.00 Ry     beta= 0.20
     Davidson diagonalization with overlap
     ethr =  7.33E-07,  avg # of iterations =  1.0

     negative rho (up, down):  6.503E-02 0.000E+00

     total cpu time spent up to now is     1268.5 secs

     total energy              =   -9109.71945421 Ry
     estimated scf accuracy    <       0.00068742 Ry

     iteration #  8     ecut=    60.00 Ry     beta= 0.20
     Davidson diagonalization with overlap
     ethr =  3.12E-07,  avg # of iterations =  1.4

     negative rho (up, down):  6.507E-02 0.000E+00

     total cpu time spent up to now is     1284.5 secs

     total energy              =   -9109.71945297 Ry
     estimated scf accuracy    <       0.00027236 Ry

     iteration #  9     ecut=    60.00 Ry     beta= 0.20
     Davidson diagonalization with overlap
     ethr =  1.24E-07,  avg # of iterations =  2.0

     negative rho (up, down):  6.510E-02 0.000E+00

     total cpu time spent up to now is     1302.0 secs

     total energy              =   -9109.71945159 Ry
     estimated scf accuracy    <       0.00017979 Ry

     iteration # 10     ecut=    60.00 Ry     beta= 0.20
     Davidson diagonalization with overlap
     ethr =  8.17E-08,  avg # of iterations =  1.1

     negative rho (up, down):  6.513E-02 0.000E+00

     total cpu time spent up to now is     1328.7 secs

     total energy              =   -9109.71945515 Ry
     estimated scf accuracy    <       0.00006922 Ry

     iteration # 11     ecut=    60.00 Ry     beta= 0.20
     Davidson diagonalization with overlap
     ethr =  3.15E-08,  avg # of iterations =  1.4

     negative rho (up, down):  6.516E-02 0.000E+00

     total cpu time spent up to now is     1344.6 secs

     total energy              =   -9109.71945959 Ry
     estimated scf accuracy    <       0.00001860 Ry

     iteration # 12     ecut=    60.00 Ry     beta= 0.20
     Davidson diagonalization with overlap
     ethr =  8.45E-09,  avg # of iterations =  2.2

     negative rho (up, down):  6.516E-02 0.000E+00

     total cpu time spent up to now is     1362.0 secs

     total energy              =   -9109.71946170 Ry
     estimated scf accuracy    <       0.00000668 Ry

     iteration # 13     ecut=    60.00 Ry     beta= 0.20
     Davidson diagonalization with overlap
     ethr =  3.04E-09,  avg # of iterations =  2.2

     negative rho (up, down):  6.516E-02 0.000E+00

     total cpu time spent up to now is     1378.5 secs

     total energy              =   -9109.71946246 Ry
     estimated scf accuracy    <       0.00000518 Ry

     iteration # 14     ecut=    60.00 Ry     beta= 0.20
     Davidson diagonalization with overlap
     ethr =  2.36E-09,  avg # of iterations =  1.0

     negative rho (up, down):  6.518E-02 0.000E+00

     total cpu time spent up to now is     1398.9 secs

     total energy              =   -9109.71946348 Ry
     estimated scf accuracy    <       0.00000207 Ry

     iteration # 15     ecut=    60.00 Ry     beta= 0.20
     Davidson diagonalization with overlap
     ethr =  9.40E-10,  avg # of iterations =  2.0

     negative rho (up, down):  6.518E-02 0.000E+00

     total cpu time spent up to now is     1415.9 secs

     total energy              =   -9109.71946364 Ry
     estimated scf accuracy    <       0.00000043 Ry

     iteration # 16     ecut=    60.00 Ry     beta= 0.20
     Davidson diagonalization with overlap
     ethr =  1.95E-10,  avg # of iterations =  2.5

     negative rho (up, down):  6.517E-02 0.000E+00

     total cpu time spent up to now is     1433.3 secs

     total energy              =   -9109.71946360 Ry
     estimated scf accuracy    <       0.00000074 Ry

     iteration # 17     ecut=    60.00 Ry     beta= 0.20
     Davidson diagonalization with overlap
     ethr =  1.95E-10,  avg # of iterations =  1.0

     negative rho (up, down):  6.517E-02 0.000E+00

     total cpu time spent up to now is     1465.0 secs

     total energy              =   -9109.71946360 Ry
     estimated scf accuracy    <       0.00000041 Ry

     iteration # 18     ecut=    60.00 Ry     beta= 0.20
     Davidson diagonalization with overlap
     ethr =  1.85E-10,  avg # of iterations =  1.0

     negative rho (up, down):  6.517E-02 0.000E+00

     total cpu time spent up to now is     1480.0 secs

     total energy              =   -9109.71946364 Ry
     estimated scf accuracy    <       0.00000005 Ry

     iteration # 19     ecut=    60.00 Ry     beta= 0.20
     Davidson diagonalization with overlap
     ethr =  2.47E-11,  avg # of iterations =  2.2

     negative rho (up, down):  6.517E-02 0.000E+00

     total cpu time spent up to now is     1496.5 secs

     total energy              =   -9109.71946364 Ry
     estimated scf accuracy    <       0.00000005 Ry

     iteration # 20     ecut=    60.00 Ry     beta= 0.20
     Davidson diagonalization with overlap
     ethr =  2.14E-11,  avg # of iterations =  1.0

     negative rho (up, down):  6.517E-02 0.000E+00

     total cpu time spent up to now is     1511.6 secs

     total energy              =   -9109.71946365 Ry
     estimated scf accuracy    <       0.00000001 Ry

     iteration # 21     ecut=    60.00 Ry     beta= 0.20
     Davidson diagonalization with overlap
     ethr =  6.27E-12,  avg # of iterations =  2.2

     negative rho (up, down):  6.517E-02 0.000E+00

     total cpu time spent up to now is     1529.4 secs

     total energy              =   -9109.71946365 Ry
     estimated scf accuracy    <          5.3E-09 Ry

     iteration # 22     ecut=    60.00 Ry     beta= 0.20
     Davidson diagonalization with overlap
     ethr =  2.41E-12,  avg # of iterations =  2.3

     negative rho (up, down):  6.517E-02 0.000E+00

     total cpu time spent up to now is     1560.4 secs

     total energy              =   -9109.71946365 Ry
     estimated scf accuracy    <          8.8E-09 Ry

     iteration # 23     ecut=    60.00 Ry     beta= 0.20
     Davidson diagonalization with overlap
     ethr =  2.41E-12,  avg # of iterations =  1.0

     negative rho (up, down):  6.517E-02 0.000E+00

     total cpu time spent up to now is     1575.1 secs

     End of self-consistent calculation

          k = 0.0000 0.0000 0.0000 ( 85239 PWs)   bands (ev):

  -103.5990-103.5178-103.3374-103.2898-103.1006-102.6699 -68.8390 -68.4540
   -68.3707 -68.3456 -64.1396 -64.0701 -64.0159 -63.9007 -63.8975 -63.8896
   -63.8479 -63.8080 -63.7334 -63.6631 -63.6517 -63.5978 -63.5894 -63.5864
   -63.3672 -63.1914 -63.0706 -63.0244 -35.4112 -35.2499 -35.1745 -34.9938
   -34.9620 -34.9092 -34.8731 -34.8627 -34.8518 -34.8506 -34.7763 -34.7399
   -13.1835 -12.9473 -12.6580 -12.4296 -12.3009 -12.0809 -12.0413 -11.9088
   -11.7811 -11.7117  -6.4055  -6.1940  -5.9424  -5.7844  -5.7088  -5.5232
    -5.3222  -4.8809  -4.7518  -4.3708  -4.2343  -4.0505  -3.9806  -3.9296
    -3.8091  -3.6313  -3.5379  -3.4429  -3.3907  -3.2153  -3.1872  -2.9900
    -2.7660  -2.7379  -2.7221  -2.5878  -2.5204  -2.4469  -2.4116  -2.3547
    -2.2222  -2.1523  -2.0945  -2.0536  -2.0248  -1.9430  -1.8888  -1.8760
    -1.7415  -1.7068  -1.5337  -1.5207  -1.4721  -1.3945  -1.2961  -1.2926
    -1.1396  -1.0708  -0.9367  -0.9246  -0.7314  -0.7164  -0.6247  -0.5214
    -0.4620  -0.3953  -0.3573  -0.2195  -0.1521   0.0347   0.3007   0.3991
     0.9743   1.0030   1.1263   1.2622   1.2818   1.3227   1.3669   1.6703
     1.7703   1.8199   2.2154   2.3204   2.6654   2.6864   2.8396   3.1884
     3.3956   3.4581   3.5983   3.6257

          k = 0.0000 0.5436 0.0000 ( 85370 PWs)   bands (ev):

  -103.5990-103.5179-103.3373-103.2899-103.1006-102.6699 -68.8386 -68.4536
   -68.3703 -68.3452 -64.1396 -64.0703 -64.0163 -63.9113 -63.8895 -63.8873
   -63.8480 -63.8082 -63.7338 -63.6702 -63.6450 -63.5977 -63.5895 -63.5864
   -63.3678 -63.1914 -63.0712 -63.0244 -35.4100 -35.2480 -35.1877 -34.9925
   -34.9601 -34.9078 -34.8714 -34.8653 -34.8614 -34.8487 -34.7899 -34.7534
   -13.0696 -12.8349 -12.5549 -12.3398 -12.2265 -11.9978 -11.9634 -11.8373
   -11.7015 -11.6513  -6.2951  -6.0853  -5.8183  -5.6727  -5.5922  -5.3944
    -5.2093  -4.7879  -4.6621  -4.3372  -4.2038  -4.0672  -4.0190  -3.9639
    -3.8629  -3.7070  -3.5723  -3.4890  -3.3605  -3.2631  -3.1603  -2.9815
    -2.9226  -2.8195  -2.7856  -2.7230  -2.7025  -2.5785  -2.4317  -2.3911
    -2.2761  -2.2595  -2.1823  -2.0921  -2.0514  -1.9945  -1.9562  -1.8703
    -1.8280  -1.7772  -1.6174  -1.5490  -1.4903  -1.4254  -1.4097  -1.2989
    -1.2529  -1.1740  -1.0752  -0.9705  -0.9091  -0.8129  -0.7759  -0.7073
    -0.6387  -0.5870  -0.3761  -0.3345  -0.0279   0.0854   0.1842   0.5093
     0.6830   0.8721   1.0586   1.1765   1.1965   1.2320   1.2911   1.4273
     1.6011   1.8462   2.0688   2.2588   2.3339   2.4875   2.7500   3.0588
     3.1549   3.2034   3.3241   3.4269

          k = 0.0000 1.0872 0.0000 ( 85486 PWs)   bands (ev):

  -103.5988-103.5181-103.3370-103.2902-103.1006-102.6699 -68.8376 -68.4525
   -68.3692 -68.3441 -64.1396 -64.0706 -64.0161 -63.9226 -63.8894 -63.8766
   -63.8481 -63.8090 -63.7339 -63.6806 -63.6355 -63.5977 -63.5903 -63.5863
   -63.3687 -63.1914 -63.0721 -63.0243 -35.4069 -35.2432 -35.2221 -34.9891
[...]
   -63.4453 -63.4441 -63.1780 -63.1764 -35.0818 -35.0806 -35.0784 -35.0759
   -35.0520 -35.0511 -35.0506 -35.0480 -35.0005 -35.0002 -34.9986 -34.9959
   -12.5569 -12.3407 -12.2752 -11.9321 -11.9204 -11.7823 -11.6982 -11.6901
   -11.6346 -11.4856  -5.8005  -5.6605  -5.3980  -5.2556  -5.1535  -5.0710
    -5.0534  -4.4485  -4.4080  -4.1877  -4.0607  -4.0194  -3.9656  -3.8945
    -3.8777  -3.7597  -3.7187  -3.5197  -3.3714  -3.3010  -3.2051  -3.1590
    -3.1310  -3.0662  -2.8933  -2.8172  -2.6606  -2.6582  -2.5507  -2.4887
    -2.3943  -2.3841  -2.3710  -2.3546  -2.1273  -2.1054  -2.0009  -1.9460
    -1.9112  -1.8575  -1.7591  -1.6620  -1.5856  -1.5192  -1.4456  -1.4250
    -1.2295  -1.1501  -1.1349  -1.1094  -1.0669  -1.0459  -1.0157  -0.9223
    -0.9205  -0.7219  -0.5287  -0.4377  -0.2826  -0.2496   0.4492   0.6726
     0.6956   0.8001   0.8295   1.0428   1.0932   1.1034   1.1327   1.4033
     1.6638   1.6803   1.7731   2.0026   2.1602   2.2943   2.3547   2.6007
     2.7259   2.8973   3.8330   3.8866

          k = 0.0000 1.6308 0.0000 ( 85556 PWs)   bands (ev):

  -103.2268-103.2261-103.2182-103.2104-102.9456-102.9451 -68.5849 -68.5840
   -68.5833 -68.5797 -63.7858 -63.7844 -63.7788 -63.7708 -63.6268 -63.6245
   -63.5999 -63.5953 -63.5268 -63.5241 -63.4998 -63.4946 -63.4673 -63.4664
   -63.4453 -63.4441 -63.1789 -63.1773 -35.0777 -35.0766 -35.0746 -35.0721
   -35.0462 -35.0454 -35.0448 -35.0427 -35.0421 -35.0419 -35.0405 -35.0378
   -12.0656 -11.8674 -11.8359 -11.6392 -11.5816 -11.4851 -11.4274 -11.3471
   -11.3158 -11.2526  -5.5734  -5.4091  -5.2298  -5.1577  -4.9721  -4.9110
    -4.8103  -4.6739  -4.6573  -4.4825  -4.3061  -4.2652  -4.2384  -4.1877
    -3.9975  -3.9438  -3.8933  -3.7974  -3.6112  -3.5374  -3.4989  -3.4599
    -3.3965  -3.0446  -3.0379  -3.0076  -2.9481  -2.9267  -2.8253  -2.7522
    -2.6140  -2.5692  -2.5568  -2.4498  -2.2523  -2.2187  -2.1082  -2.0561
    -1.9844  -1.9363  -1.8580  -1.7703  -1.6462  -1.5058  -1.4999  -1.4933
    -1.4458  -1.3180  -1.2551  -1.2110  -1.1971  -1.1199  -1.0921  -1.0506
    -0.8454  -0.8377  -0.6895  -0.6632  -0.5090  -0.3988   0.6215   0.7061
     0.8442   0.8703   0.9393   1.1090   1.3229   1.3362   1.4173   1.4545
     1.7023   1.7121   1.7447   1.9878   2.1720   2.2572   2.5106   2.7005
     2.9690   2.9876   3.7806   3.8361

          k = 0.0000 2.1744 0.0000 ( 85610 PWs)   bands (ev):

  -103.2262-103.2244-103.2198-103.2110-102.9456-102.9451 -68.5839 -68.5829
   -68.5822 -68.5787 -63.7855 -63.7835 -63.7798 -63.7711 -63.6229 -63.6214
   -63.6093 -63.6040 -63.5180 -63.5161 -63.5042 -63.4982 -63.4673 -63.4663
   -63.4452 -63.4441 -63.1796 -63.1780 -35.0769 -35.0766 -35.0750 -35.0739
   -35.0728 -35.0720 -35.0710 -35.0686 -35.0412 -35.0402 -35.0398 -35.0372
   -11.5157 -11.3996 -11.3722 -11.3369 -11.2779 -11.2764 -11.1342 -11.0647
   -11.0357 -10.9960  -5.9642  -5.9260  -5.9142  -5.8726  -5.3456  -5.3358
    -4.9766  -4.9456  -4.8248  -4.7113  -4.3641  -4.3098  -4.0735  -3.8914
    -3.8053  -3.7662  -3.7579  -3.7325  -3.6622  -3.5793  -3.4617  -3.4217
    -3.2541  -3.2513  -3.2248  -3.1656  -3.1053  -2.9222  -2.8439  -2.8420
    -2.6298  -2.5782  -2.5604  -2.3258  -2.2247  -2.1950  -2.1543  -2.1462
    -2.0567  -2.0536  -1.9553  -1.8928  -1.7212  -1.6215  -1.6000  -1.4496
    -1.4021  -1.3842  -1.2968  -1.2708  -1.2647  -1.2257  -1.1978  -1.0513
    -0.8915  -0.8663  -0.8314  -0.8169  -0.5957  -0.5844   0.4866   0.6454
     0.7796   0.9610   0.9966   1.1575   1.3124   1.4459   1.6043   1.8660
     1.8851   1.9888   2.1065   2.1744   2.3234   2.3448   3.0023   3.0130
     3.1709   3.3821   3.3933   3.4662

          k = 0.0000-2.7180 0.0000 ( 85712 PWs)   bands (ev):

  -103.2259-103.2234-103.2209-103.2112-102.9455-102.9451 -68.5835 -68.5825
   -68.5818 -68.5783 -63.7855 -63.7830 -63.7805 -63.7713 -63.6191 -63.6178
   -63.6165 -63.6084 -63.5123 -63.5116 -63.5093 -63.5007 -63.4674 -63.4664
   -63.4453 -63.4441 -63.1799 -63.1783 -35.0894 -35.0891 -35.0875 -35.0847
   -35.0728 -35.0720 -35.0702 -35.0678 -35.0393 -35.0383 -35.0380 -35.0354
   -11.2301 -11.2299 -11.1479 -11.1459 -11.1143 -11.1114 -11.0731 -11.0710
   -10.8895 -10.8878  -6.2629  -6.2615  -6.2378  -6.2334  -5.6383  -5.6352
    -5.0930  -5.0918  -4.9415  -4.9388  -4.0075  -4.0055  -3.9936  -3.9923
    -3.8137  -3.8119  -3.5828  -3.5808  -3.4807  -3.4774  -3.4552  -3.4530
    -3.3445  -3.3432  -3.1368  -3.1351  -2.9489  -2.9453  -2.9344  -2.9331
    -2.5642  -2.5633  -2.3974  -2.3949  -2.1734  -2.1692  -2.0932  -2.0928
    -2.0724  -2.0676  -2.0553  -2.0537  -1.7096  -1.7086  -1.5731  -1.5698
    -1.3696  -1.3672  -1.3289  -1.3272  -1.2273  -1.2256  -1.1244  -1.1221
    -0.9405  -0.9402  -0.9131  -0.9121  -0.6814  -0.6804   0.5233   0.5255
     0.8747   0.8765   1.0575   1.0586   1.3524   1.3547   1.6265   1.6301
     2.0959   2.1006   2.2050   2.2065   2.5334   2.5343   3.2524   3.2526
     3.3580   3.3608   3.3615   3.3630

          k =-0.5000 0.0000 0.0000 ( 85168 PWs)   bands (ev):

  -103.2286-103.2283-103.2157-103.2089-102.9456-102.9451 -68.5876 -68.5866
   -68.5859 -68.5824 -63.7866 -63.7861 -63.7770 -63.7699 -63.6295 -63.6268
   -63.5742 -63.5693 -63.5505 -63.5480 -63.4946 -63.4898 -63.4674 -63.4665
   -63.4453 -63.4442 -63.1765 -63.1749 -35.0862 -35.0855 -35.0824 -35.0803
   -35.0587 -35.0578 -35.0573 -35.0547 -34.9531 -34.9527 -34.9512 -34.9484
   -12.9277 -12.9249 -12.4592 -12.4574 -12.1469 -12.1452 -11.9958 -11.9950
   -11.7909 -11.7901  -6.1347  -6.1315  -5.8420  -5.8388  -5.5048  -5.5014
    -5.1323  -5.1305  -4.5426  -4.5387  -3.9245  -3.9226  -3.6724  -3.6686
    -3.5502  -3.5472  -3.4768  -3.4727  -3.1704  -3.1643  -2.7699  -2.7645
    -2.7207  -2.7185  -2.3821  -2.3780  -2.2744  -2.2694  -2.2361  -2.2345
    -2.1684  -2.1673  -2.1561  -2.1554  -1.9107  -1.9087  -1.7877  -1.7866
    -1.6640  -1.6621  -1.5635  -1.5597  -1.2984  -1.2961  -1.1582  -1.1553
    -1.1467  -1.1436  -0.9014  -0.8966  -0.7220  -0.7194  -0.6187  -0.6164
    -0.3891  -0.3887  -0.2002  -0.1999  -0.0975  -0.0952   0.5251   0.5301
     0.6120   0.6178   1.0515   1.0538   1.2412   1.2470   1.4642   1.4671
     1.9754   1.9780   2.1295   2.1307   2.6688   2.6742   3.3039   3.3052
     3.4572   3.4605   3.6282   3.6320

          k =-0.5000 0.5436 0.0000 ( 85298 PWs)   bands (ev):

  -103.2283-103.2281-103.2160-103.2091-102.9456-102.9451 -68.5872 -68.5862
   -68.5855 -68.5820 -63.7865 -63.7859 -63.7772 -63.7700 -63.6297 -63.6271
   -63.5795 -63.5748 -63.5456 -63.5428 -63.4951 -63.4903 -63.4674 -63.4665
   -63.4453 -63.4441 -63.1771 -63.1755 -35.0849 -35.0843 -35.0812 -35.0791
   -35.0569 -35.0559 -35.0554 -35.0528 -34.9662 -34.9659 -34.9644 -34.9616
   -12.8155 -12.8128 -12.3570 -12.3551 -12.0760 -12.0743 -11.9122 -11.9114
   -11.7260 -11.7252  -6.0250  -6.0219  -5.7155  -5.7126  -5.3902  -5.3868
    -5.0238  -5.0218  -4.4695  -4.4656  -3.9432  -3.9405  -3.6889  -3.6873
    -3.5564  -3.5530  -3.4736  -3.4699  -3.2834  -3.2791  -2.8501  -2.8466
    -2.7467  -2.7444  -2.5481  -2.5446  -2.5062  -2.5043  -2.2701  -2.2683
    -2.2524  -2.2482  -2.0146  -2.0137  -1.9589  -1.9574  -1.8469  -1.8429
    -1.8040  -1.8022  -1.6180  -1.6148  -1.3254  -1.3234  -1.2743  -1.2726
    -1.1249  -1.1224  -1.0195  -1.0148  -0.8155  -0.8134  -0.7409  -0.7385
    -0.6412  -0.6396  -0.3602  -0.3591   0.0817   0.0836   0.2552   0.2583
     0.7844   0.7874   1.0179   1.0199   1.0994   1.1013   1.2223   1.2262
     1.7907   1.7920   2.1947   2.1961   2.2515   2.2550   3.0524   3.0534
     3.1761   3.1782   3.5899   3.5903

          k =-0.5000 1.0872 0.0000 ( 85474 PWs)   bands (ev):

  -103.2276-103.2274-103.2169-103.2096-102.9456-102.9451 -68.5862 -68.5852
   -68.5845 -68.5810 -63.7862 -63.7854 -63.7779 -63.7703 -63.6290 -63.6264
   -63.5895 -63.5850 -63.5363 -63.5334 -63.4968 -63.4919 -63.4674 -63.4664
   -63.4453 -63.4442 -63.1780 -63.1764 -35.0816 -35.0809 -35.0782 -35.0760
   -35.0520 -35.0511 -35.0506 -35.0480 -35.0005 -35.0002 -34.9986 -34.9959
   -12.4932 -12.4905 -12.0677 -12.0657 -11.8780 -11.8765 -11.6792 -11.6782
   -11.5439 -11.5432  -5.7364  -5.7337  -5.3844  -5.3825  -5.0766  -5.0734
    -4.7705  -4.7683  -4.3303  -4.3269  -4.0811  -4.0784  -3.8550  -3.8538
    -3.6545  -3.6535  -3.5745  -3.5716  -3.5303  -3.5295  -3.2416  -3.2387
    -3.0195  -3.0164  -2.8712  -2.8698  -2.6995  -2.6965  -2.4899  -2.4877
    -2.3798  -2.3784  -2.3482  -2.3449  -2.1263  -2.1257  -1.9687  -1.9657
    -1.8989  -1.8951  -1.7486  -1.7468  -1.4503  -1.4477  -1.4292  -1.4245
    -1.2858  -1.2817  -1.1256  -1.1214  -1.0979  -1.0963  -0.9035  -0.9022
    -0.8302  -0.8282  -0.4753  -0.4749  -0.2593  -0.2578   0.5541   0.5569
     0.8261   0.8281   0.9677   0.9728   1.0315   1.0349   1.2343   1.2347
     1.5422   1.5439   1.9431   1.9473   2.1834   2.1888   2.5929   2.5937
     2.7645   2.7657   3.9226   3.9229

          k =-0.5000 1.6308 0.0000 ( 85608 PWs)   bands (ev):

  -103.2268-103.2261-103.2182-103.2104-102.9456-102.9451 -68.5849 -68.5840
   -68.5833 -68.5797 -63.7860 -63.7846 -63.7789 -63.7709 -63.6268 -63.6245
   -63.5999 -63.5953 -63.5268 -63.5241 -63.4998 -63.4946 -63.4673 -63.4664
   -63.4453 -63.4442 -63.1790 -63.1773 -35.0776 -35.0768 -35.0744 -35.0722
   -35.0462 -35.0454 -35.0448 -35.0427 -35.0421 -35.0419 -35.0405 -35.0378
   -12.0098 -12.0071 -11.6554 -11.6528 -11.6005 -11.5989 -11.3698 -11.3688
   -11.2776 -11.2768  -5.5012  -5.4990  -5.1355  -5.1346  -5.0418  -5.0403
    -4.7608  -4.7578  -4.5127  -4.5103  -4.3117  -4.3101  -4.1204  -4.1183
    -3.9660  -3.9657  -3.8827  -3.8794  -3.6703  -3.6680  -3.4527  -3.4495
    -3.1257  -3.1206  -3.0794  -3.0788  -2.9616  -2.9603  -2.8245  -2.8237
    -2.5694  -2.5678  -2.4699  -2.4688  -2.2371  -2.2343  -2.0847  -2.0812
    -1.9458  -1.9429  -1.8613  -1.8584  -1.5720  -1.5668  -1.4858  -1.4803
    -1.3719  -1.3688  -1.2487  -1.2473  -1.1556  -1.1519  -1.0466  -1.0448
    -0.8705  -0.8691  -0.6865  -0.6856  -0.4505  -0.4489   0.7122   0.7139
     0.9736   0.9773   0.9982   0.9998   1.2282   1.2308   1.3805   1.3822
     1.6623   1.6641   1.8845   1.8882   2.1994   2.2067   2.7175   2.7189
     2.8939   2.8951   3.9238   3.9248

          k =-0.5000 2.1744 0.0000 ( 85668 PWs)   bands (ev):

  -103.2262-103.2244-103.2198-103.2110-102.9456-102.9451 -68.5839 -68.5829
   -68.5822 -68.5787 -63.7856 -63.7836 -63.7798 -63.7711 -63.6229 -63.6214
   -63.6094 -63.6041 -63.5181 -63.5162 -63.5043 -63.4982 -63.4673 -63.4664
   -63.4453 -63.4441 -63.1797 -63.1780 -35.0769 -35.0766 -35.0750 -35.0739
   -35.0728 -35.0720 -35.0710 -35.0686 -35.0412 -35.0402 -35.0398 -35.0372
   -11.4788 -11.4762 -11.3377 -11.3367 -11.2690 -11.2670 -11.1177 -11.1174
   -11.0051 -11.0039  -5.9881  -5.9862  -5.8370  -5.8339  -5.3657  -5.3635
    -4.9678  -4.9655  -4.7577  -4.7557  -4.3411  -4.3391  -3.9468  -3.9453
    -3.8672  -3.8648  -3.7553  -3.7518  -3.5899  -3.5884  -3.4170  -3.4147
    -3.2345  -3.2334  -3.1692  -3.1663  -3.0546  -3.0528  -2.8726  -2.8724
    -2.5669  -2.5646  -2.4566  -2.4552  -2.1934  -2.1901  -2.1650  -2.1622
    -2.0723  -2.0714  -1.9446  -1.9421  -1.6570  -1.6538  -1.5222  -1.5168
    -1.3872  -1.3838  -1.2975  -1.2966  -1.2578  -1.2553  -1.0664  -1.0663
    -0.9665  -0.9644  -0.7643  -0.7636  -0.6127  -0.6106   0.5653   0.5666
     0.9878   0.9921   1.0229   1.0237   1.3156   1.3190   1.7024   1.7049
     2.0016   2.0042   2.0801   2.0815   2.3341   2.3383   3.0625   3.0632
     3.1721   3.1732   3.5069   3.5085

          k =-0.5000-2.7180 0.0000 ( 85712 PWs)   bands (ev):

  -103.2259-103.2234-103.2209-103.2112-102.9455-102.9451 -68.5835 -68.5825
   -68.5818 -68.5783 -63.7855 -63.7830 -63.7805 -63.7713 -63.6191 -63.6178
   -63.6165 -63.6084 -63.5123 -63.5116 -63.5093 -63.5007 -63.4673 -63.4664
   -63.4453 -63.4441 -63.1800 -63.1783 -35.0894 -35.0891 -35.0875 -35.0847
   -35.0728 -35.0720 -35.0702 -35.0678 -35.0393 -35.0383 -35.0380 -35.0354
   -11.2299 -11.2298 -11.1528 -11.1505 -11.0932 -11.0905 -11.0900 -11.0889
   -10.8885 -10.8869  -6.3171  -6.3149  -6.1730  -6.1694  -5.6473  -5.6445
    -5.0945  -5.0935  -4.9444  -4.9416  -4.0298  -4.0282  -3.9636  -3.9629
    -3.7974  -3.7959  -3.5655  -3.5617  -3.5529  -3.5526  -3.4415  -3.4398
    -3.3876  -3.3874  -3.0475  -3.0465  -2.9539  -2.9527  -2.9359  -2.9326
    -2.5001  -2.4971  -2.4541  -2.4536  -2.1948  -2.1904  -2.0924  -2.0904
    -2.0771  -2.0756  -2.0664  -2.0607  -1.7092  -1.7087  -1.5555  -1.5507
    -1.3727  -1.3711  -1.3441  -1.3387  -1.1854  -1.1847  -1.1710  -1.1696
    -0.9707  -0.9701  -0.8697  -0.8677  -0.6861  -0.6850   0.5252   0.5272
     0.9523   0.9528   1.1041   1.1056   1.1370   1.1389   1.8533   1.8570
     1.9077   1.9107   2.2756   2.2763   2.4977   2.5009   3.2761   3.2764
     3.2924   3.2937   3.5128   3.5155

     the Fermi energy is     0.1181 ev

!    total energy              =   -9109.82062388 Ry
     total all-electron energy =     -9109.820624 Ry
     estimated scf accuracy    <          8.9E-11 Ry
     smearing contrib. (-TS)   =      -0.00014898 Ry
     internal energy E=F+TS    =   -9109.82047490 Ry

     The total energy is F=E-TS. E is the sum of the following terms:
     one-electron contribution =  -16351.92649841 Ry
     hartree contribution      =    8035.09078246 Ry
     xc contribution           =    -364.87958879 Ry
     ewald contribution        =    5839.56393519 Ry
     one-center paw contrib.   =   -6267.66910536 Ry

     convergence has been achieved in  19 iterations

     negative rho (up, down):  6.506E-02 0.000E+00

     Forces acting on atoms (cartesian axes, Ry/au):

     atom    1 type  1   force =    -0.00039282    0.00032631   -0.00018395
     atom    2 type  1   force =     0.00025577   -0.00027311    0.00038533
     atom    3 type  1   force =     0.00020228    0.00026784   -0.00022994
     atom    4 type  1   force =     0.00005796   -0.00025682   -0.00002776
     atom    5 type  2   force =     0.00001738    0.00026002    0.00058498
     atom    6 type  2   force =     0.00060212   -0.00035434   -0.00025975
     atom    7 type  2   force =     0.00061869    0.00031351    0.00009525
     atom    8 type  2   force =     0.00089702   -0.00033539    0.00035981
     atom    9 type  2   force =     0.00020279    0.00032604    0.00033490
     atom   10 type  2   force =    -0.00011813   -0.00028849   -0.00091062
     atom   11 type  3   force =    -0.00070258   -0.00017382   -0.00021684
     atom   12 type  3   force =    -0.00017145    0.00028352    0.00053668
     atom   13 type  3   force =    -0.00014528    0.00005806    0.00001447
     atom   14 type  3   force =    -0.00028682   -0.00009919   -0.00052076
     atom   15 type  3   force =     0.00027937   -0.00017425   -0.00022319
     atom   16 type  3   force =    -0.00006329    0.00021672    0.00020483
     atom   17 type  3   force =    -0.00028021    0.00004297    0.00033932
     atom   18 type  3   force =    -0.00029360   -0.00013773    0.00028541
     atom   19 type  3   force =    -0.00068677    0.00020340   -0.00016565
     atom   20 type  3   force =     0.00000758   -0.00020524   -0.00040250

     Total force =     0.002691     Total SCF correction =     0.000048


     Computing stress (Cartesian axis) and pressure


     negative rho (up, down):  6.506E-02 0.000E+00
          total   stress  (Ry/bohr**3)                   (kbar)     P=       -4.33
  -0.00012159   0.00000000   0.00000034          -17.89        0.00        0.05
   0.00000000   0.00007205  -0.00000015            0.00       10.60       -0.02
   0.00000034  -0.00000015  -0.00003886            0.05       -0.02       -5.72

     Energy error            =      1.5E-05 Ry
     Gradient error          =      9.1E-04 Ry/Bohr

     bfgs converged in  29 scf cycles and  28 bfgs steps
     (criteria: energy <  1.0E-04 Ry, force <  1.0E-03 Ry/Bohr)

     End of BFGS Geometry Optimization

     Final energy             =   -9109.8206238800 Ry

     File /ddn/data/physics/eamoujaes/2D-Ta2Ni3Te5/ELASTIC/C12/OUT/ta2ni3te5.bfgs deleted, as requested
Begin final coordinates

ATOMIC_POSITIONS (angstrom)
Ta           15.8336649413        0.9685918011       12.3336560353
Ta            6.4688720977        2.6911132856       12.6977856264
Ta            1.9331020047        0.9683041538       12.3539129215
Ta           11.2937264883        2.6915236525       12.6880646257
Ni           13.1364542449        0.9687254201       11.7290561049
Ni            3.7724786699        2.6912480409       13.3016636200
Ni            4.6242279228        0.9681012877       11.7527378161
Ni           13.9866304462        2.6917394429       13.2761946890
Ni            8.8801165293        0.9664454231       12.3052068331
Ni           -0.4730513806        2.6926327511       12.7372616121
Te           14.5849715835        2.6915042691       10.4315635093
Te            5.2178477518        0.9679253951       14.5985447771
Te           10.7862646726        0.9689564675       10.5513007292
Te            1.4292908145        2.6910771846       14.4931776800
Te            3.1843948262        2.6910115686       10.4517851407
Te           12.5531950941        0.9686324309       14.5838664343
Te            6.9703090736        0.9685974613       10.5590104347
Te           16.3314059789        2.6916509133       14.4725242431
Te           -0.4697545820        0.9691637688       10.8493763209
Te            8.8844151855        2.6899877358       14.1915618462
End final coordinates



     Writing all to output data dir /ddn/data/physics/eamoujaes/2D-Ta2Ni3Te5/ELASTIC/C12/OUT/ta2ni3te5.save/
 
     init_run     :     88.44s CPU     41.19s WALL (       1 calls)
     electrons    :  32641.16s CPU  11970.63s WALL (      29 calls)
     update_pot   :   1524.43s CPU    516.67s WALL (      28 calls)
     forces       :   1387.08s CPU    473.89s WALL (      29 calls)
     stress       :   3292.23s CPU   1126.90s WALL (      29 calls)

     Called by init_run:
     wfcinit      :     27.83s CPU      9.90s WALL (       1 calls)
     potinit      :     18.46s CPU      6.31s WALL (       1 calls)
     hinit0       :     35.27s CPU     19.47s WALL (       1 calls)

     Called by electrons:
     c_bands      :  23436.36s CPU   8258.66s WALL (     671 calls)
     sum_band     :   5607.71s CPU   2013.82s WALL (     671 calls)
     v_of_rho     :   1655.96s CPU    628.16s WALL (     694 calls)
     newd         :    952.41s CPU    405.73s WALL (     694 calls)
     PAW_pot      :    431.51s CPU    152.52s WALL (     722 calls)
     mix_rho      :    426.07s CPU    161.76s WALL (     671 calls)

     Called by c_bands:
     init_us_2    :    190.51s CPU     64.49s WALL (    2858 calls)
     init_us_2:cp :    190.38s CPU     64.47s WALL (    2858 calls)
     cegterg      :  22024.67s CPU   7561.46s WALL (    1342 calls)

     Called by *egterg:
     cdiaghg      :    260.69s CPU     89.84s WALL (    4364 calls)
     h_psi        :  15219.57s CPU   5228.63s WALL (    4434 calls)
     s_psi        :   1294.92s CPU    432.00s WALL (    4434 calls)
     g_psi        :     59.58s CPU     19.91s WALL (    3090 calls)

     Called by h_psi:
     h_psi:calbec :   1340.98s CPU    448.43s WALL (    4434 calls)
     vloc_psi     :  12485.56s CPU   4299.04s WALL (    4434 calls)
     add_vuspsi   :   1297.19s CPU    432.86s WALL (    4434 calls)

     General routines
     calbec       :   2073.44s CPU    694.07s WALL (    6122 calls)
     fft          :   1343.48s CPU    502.47s WALL (    9723 calls)
     ffts         :     37.57s CPU     13.54s WALL (    1365 calls)
     fftw         :  11101.44s CPU   3867.58s WALL (  976278 calls)
     interpolate  :    128.67s CPU     49.86s WALL (     694 calls)
 
     Parallel routines
 
     PWSCF        :     10h50m CPU      3h57m WALL

 
   This run was terminated on:   3: 1:54   1Aug2024            

=------------------------------------------------------------------------------=
   JOB DONE.
=------------------------------------------------------------------------------=
