
     Program PWSCF v.7.1 starts on  1Aug2024 at  3: 1:57 

     This program is part of the open-source Quantum ESPRESSO suite
     for quantum simulation of materials; please cite
         "P. Giannozzi et al., J. Phys.:Condens. Matter 21 395502 (2009);
         "P. Giannozzi et al., J. Phys.:Condens. Matter 29 465901 (2017);
         "P. Giannozzi et al., J. Chem. Phys. 152 154105 (2020);
          URL http://www.quantum-espresso.org", 
     in publications or presentations arising from this work. More details at
     http://www.quantum-espresso.org/quote

     Parallel version (MPI & OpenMP), running on      72 processor cores
     Number of MPI processes:                24
     Threads/MPI process:                     3

     MPI processes distributed on     3 nodes
     28475 MiB available memory on the printing compute node when the environment starts
 
     Waiting for input...
     Reading input from standard input
Warning: card &CELL ignored
Warning: card CELL_DYNAMICS='BFGS' ignored
Warning: card PRESS=0.0 ignored
Warning: card CELL_DOFREE='2DXY' ignored
Warning: card / ignored

     Current dimensions of program PWSCF are:
     Max number of different atomic species (ntypx) = 10
     Max number of k-points (npk) =  40000
     Max angular momentum in pseudopotentials (lmaxx) =  4
     Message from routine read_pp_mesh:
     mismatch in mesh size, discarding the one in header
     Message from routine read_pp_mesh:
     mismatch in mesh size, discarding the one in header
     Message from routine read_pp_mesh:
     mismatch in mesh size, discarding the one in header
 
     K-points division:     npool     =       8
     R & G space division:  proc/nbgrp/npool/nimage =       3
     Subspace diagonalization in iterative solution of the eigenvalue problem:
     a serial algorithm will be used

 
     Parallelization info
     --------------------
     sticks:   dense  smooth     PW     G-vecs:    dense   smooth      PW
     Min        2934    1463    415               644268   227844   34362
     Max        2935    1464    418               644271   227846   34363
     Sum        8803    4391   1251              1932807   683535  103087
 
     Using Slab Decomposition
 


     bravais-lattice index     =            0
     lattice parameter (alat)  =      36.0805  a.u.
     unit-cell volume          =   10883.6322 (a.u.)^3
     number of atoms/cell      =           20
     number of atomic types    =            3
     number of electrons       =       220.00
     number of Kohn-Sham states=          132
     kinetic-energy cutoff     =      60.0000  Ry
     charge density cutoff     =     480.0000  Ry
     scf convergence threshold =      1.0E-08
     mixing beta               =       0.2000
     number of iterations used =            8  plain     mixing
     energy convergence thresh.=      1.0E-04
     force convergence thresh. =      1.0E-03
     Exchange-correlation= SLA PW PBX PBC
                           (   1   4   3   4   0   0   0)
     nstep                     =         2000


     celldm(1)=  36.080541  celldm(2)=   0.000000  celldm(3)=   0.000000
     celldm(4)=   0.000000  celldm(5)=   0.000000  celldm(6)=   0.000000

     crystal axes: (cart. coord. in units of alat)
               a(1) = (   1.000000   0.000000   0.000000 )  
               a(2) = (   0.000000   0.176714   0.000000 )  
               a(3) = (   0.000000   0.000000   1.311245 )  

     reciprocal axes: (cart. coord. in units 2 pi/alat)
               b(1) = (  1.000000  0.000000  0.000000 )  
               b(2) = (  0.000000  5.658862  0.000000 )  
               b(3) = (  0.000000  0.000000  0.762634 )  


     PseudoPot. # 1 for Ta read from file:
     /ddn/data/physics/eamoujaes/PSEUDO-CREATED/Ta.upf
     MD5 check sum: d865b2c2c09566b116f2b8decb2c153d
     Pseudo is Projector augmented-wave + core cor, Zval = 13.0
     Generated using ATOMPAW code
     Shape of augmentation charge: SINC**2
     Using radial grid of 2342 points,  6 beta functions with: 
                l(1) =   0
                l(2) =   0
                l(3) =   1
                l(4) =   1
                l(5) =   2
                l(6) =   2
     Q(r) pseudized with 0 coefficients 


     PseudoPot. # 2 for Ni read from file:
     /ddn/data/physics/eamoujaes/PSEUDO-CREATED/Ni.upf
     MD5 check sum: 85a2a5d9d38f4289a1cc30d5adb66a03
     Pseudo is Projector augmented-wave + core cor, Zval = 18.0
     Generated using ATOMPAW code
     Shape of augmentation charge: SINC**2
     Using radial grid of 2342 points,  6 beta functions with: 
                l(1) =   0
                l(2) =   0
                l(3) =   1
                l(4) =   1
                l(5) =   2
                l(6) =   2
     Q(r) pseudized with 0 coefficients 


     PseudoPot. # 3 for Te read from file:
     /ddn/data/physics/eamoujaes/PSEUDO-CREATED/Te.upf
     MD5 check sum: 8d958f193a7511a138982c2e72838810
     Pseudo is Projector augmented-wave + core cor, Zval =  6.0
     Generated using ATOMPAW code
     Shape of augmentation charge: SINC**2
     Using radial grid of 2342 points,  4 beta functions with: 
                l(1) =   0
                l(2) =   0
                l(3) =   1
                l(4) =   1
     Q(r) pseudized with 0 coefficients 


     atomic species   valence    mass     pseudopotential
        Ta            13.00   180.94790     Ta( 1.00)
        Ni            18.00    58.69340     Ni( 1.00)
        Te             6.00   127.60000     Te( 1.00)

     No symmetry found



   Cartesian axes

     site n.     atom                  positions (alat units)
         1           Ta  tau(   1) = (   0.8061510   0.0479193   0.6517488  )
         2           Ta  tau(   2) = (   0.3441864   0.1437579   0.6595085  )
         3           Ta  tau(   3) = (   0.1186380   0.0479193   0.6517397  )
         4           Ta  tau(   4) = (   0.5806030   0.1437579   0.6595169  )
         5           Ni  tau(   5) = (   0.6737762   0.0479193   0.6160210  )
         6           Ni  tau(   6) = (   0.2118106   0.1437579   0.6952362  )
         7           Ni  tau(   7) = (   0.2510065   0.0479193   0.6160071  )
         8           Ni  tau(   8) = (   0.7129713   0.1437579   0.6952496  )
         9           Ni  tau(   9) = (   0.4623866   0.0479193   0.6477874  )
        10           Ni  tau(  10) = (   0.0004230   0.1437579   0.6634688  )
        11           Te  tau(  11) = (   0.7444112   0.1437579   0.5517863  )
        12           Te  tau(  12) = (   0.2824450   0.0479193   0.7594706  )
        13           Te  tau(  13) = (   0.5549381   0.0479193   0.5509524  )
        14           Te  tau(  14) = (   0.0929739   0.1437579   0.7603046  )
        15           Te  tau(  15) = (   0.1803639   0.1437579   0.5517747  )
        16           Te  tau(  16) = (   0.6423291   0.0479193   0.7594821  )
        17           Te  tau(  17) = (   0.3698538   0.0479193   0.5509439  )
        18           Te  tau(  18) = (   0.8318180   0.1437579   0.7603136  )
        19           Te  tau(  19) = (   0.0004347   0.0479193   0.5676226  )
        20           Te  tau(  20) = (   0.4623976   0.1437579   0.7436326  )

     number of k points=    12  Gaussian smearing, width (Ry)=  0.0020
                       cart. coord. in units 2pi/alat
        k(    1) = (   0.0000000   0.0000000   0.0000000), wk =   0.1000000
        k(    2) = (   0.0000000   0.5658862   0.0000000), wk =   0.2000000
        k(    3) = (   0.0000000   1.1317724   0.0000000), wk =   0.2000000
        k(    4) = (   0.0000000   1.6976586   0.0000000), wk =   0.2000000
        k(    5) = (   0.0000000   2.2635448   0.0000000), wk =   0.2000000
        k(    6) = (   0.0000000  -2.8294309   0.0000000), wk =   0.1000000
        k(    7) = (  -0.5000000   0.0000000   0.0000000), wk =   0.1000000
        k(    8) = (  -0.5000000   0.5658862   0.0000000), wk =   0.2000000
        k(    9) = (  -0.5000000   1.1317724   0.0000000), wk =   0.2000000
        k(   10) = (  -0.5000000   1.6976586   0.0000000), wk =   0.2000000
        k(   11) = (  -0.5000000   2.2635448   0.0000000), wk =   0.2000000
        k(   12) = (  -0.5000000  -2.8294309   0.0000000), wk =   0.1000000

     Dense  grid:  1932807 G-vectors     FFT dimensions: ( 256,  45, 360)

     Smooth grid:   683535 G-vectors     FFT dimensions: ( 180,  32, 240)

     Estimated max dynamical RAM per process >       1.01 GB

     Estimated total dynamical RAM >      21.08 GB

     Initial potential from superposition of free atoms

     starting charge     219.9927, renormalised to     220.0000

     negative rho (up, down):  4.956E-02 0.000E+00
     Starting wfcs are  260 randomized atomic wfcs
     Checking if some PAW data can be deallocated... 

     total cpu time spent up to now is       41.8 secs

     Self-consistent Calculation

     iteration #  1     ecut=    60.00 Ry     beta= 0.20
     Davidson diagonalization with overlap
     ethr =  1.00E-02,  avg # of iterations =  2.9

     negative rho (up, down):  5.021E-02 0.000E+00

     total cpu time spent up to now is       59.4 secs

     total energy              =   -9107.51250941 Ry
     estimated scf accuracy    <       8.31967887 Ry

     iteration #  2     ecut=    60.00 Ry     beta= 0.20
     Davidson diagonalization with overlap
     ethr =  3.78E-03,  avg # of iterations =  2.3

     negative rho (up, down):  5.109E-02 0.000E+00

     total cpu time spent up to now is       75.2 secs

     total energy              =   -9105.62743777 Ry
     estimated scf accuracy    <      50.93025569 Ry

     iteration #  3     ecut=    60.00 Ry     beta= 0.20
     Davidson diagonalization with overlap
     ethr =  3.78E-03,  avg # of iterations =  2.0

     negative rho (up, down):  5.190E-02 0.000E+00

     total cpu time spent up to now is      102.8 secs

     total energy              =   -9106.58531213 Ry
     estimated scf accuracy    <     100.18240784 Ry

     iteration #  4     ecut=    60.00 Ry     beta= 0.20
     Davidson diagonalization with overlap
     ethr =  3.78E-03,  avg # of iterations =  1.1

     negative rho (up, down):  5.310E-02 0.000E+00

     total cpu time spent up to now is      116.7 secs

     total energy              =   -9109.53990116 Ry
     estimated scf accuracy    <       3.48211723 Ry

     iteration #  5     ecut=    60.00 Ry     beta= 0.20
     Davidson diagonalization with overlap
     ethr =  1.58E-03,  avg # of iterations =  1.0

     negative rho (up, down):  5.441E-02 0.000E+00

     total cpu time spent up to now is      130.4 secs

     total energy              =   -9109.63109503 Ry
     estimated scf accuracy    <       1.46601896 Ry

     iteration #  6     ecut=    60.00 Ry     beta= 0.20
     Davidson diagonalization with overlap
     ethr =  6.66E-04,  avg # of iterations =  1.0

     negative rho (up, down):  5.787E-02 0.000E+00

     total cpu time spent up to now is      144.1 secs

     total energy              =   -9109.50131662 Ry
     estimated scf accuracy    <       0.97634540 Ry

     iteration #  7     ecut=    60.00 Ry     beta= 0.20
     Davidson diagonalization with overlap
     ethr =  4.44E-04,  avg # of iterations =  1.1

     negative rho (up, down):  6.199E-02 0.000E+00

     total cpu time spent up to now is      158.0 secs

     total energy              =   -9109.50996707 Ry
     estimated scf accuracy    <       0.19190996 Ry

     iteration #  8     ecut=    60.00 Ry     beta= 0.20
     Davidson diagonalization with overlap
     c_bands:  2 eigenvalues not converged
     ethr =  8.72E-05,  avg # of iterations =  8.6

     negative rho (up, down):  6.276E-02 0.000E+00

     total cpu time spent up to now is      178.1 secs

     total energy              =   -9109.54570608 Ry
     estimated scf accuracy    <       0.33373741 Ry

     iteration #  9     ecut=    60.00 Ry     beta= 0.20
     Davidson diagonalization with overlap
     ethr =  8.72E-05,  avg # of iterations =  1.2

     negative rho (up, down):  6.295E-02 0.000E+00

     total cpu time spent up to now is      192.3 secs

     total energy              =   -9109.51768348 Ry
     estimated scf accuracy    <       0.23057357 Ry

     iteration # 10     ecut=    60.00 Ry     beta= 0.20
     Davidson diagonalization with overlap
     ethr =  8.72E-05,  avg # of iterations =  1.0

     negative rho (up, down):  6.350E-02 0.000E+00

     total cpu time spent up to now is      206.0 secs

     total energy              =   -9109.53179221 Ry
     estimated scf accuracy    <       0.02030385 Ry

     iteration # 11     ecut=    60.00 Ry     beta= 0.20
     Davidson diagonalization with overlap
     c_bands:  1 eigenvalues not converged
     ethr =  9.23E-06,  avg # of iterations = 13.1

     negative rho (up, down):  6.452E-02 0.000E+00

     total cpu time spent up to now is      226.1 secs

     total energy              =   -9109.53292348 Ry
     estimated scf accuracy    <       0.00975482 Ry

     iteration # 12     ecut=    60.00 Ry     beta= 0.20
     Davidson diagonalization with overlap
     ethr =  4.43E-06,  avg # of iterations =  3.2

     negative rho (up, down):  6.551E-02 0.000E+00

     total cpu time spent up to now is      241.4 secs

     total energy              =   -9109.53251372 Ry
     estimated scf accuracy    <       0.00495357 Ry

     iteration # 13     ecut=    60.00 Ry     beta= 0.20
     Davidson diagonalization with overlap
     ethr =  2.25E-06,  avg # of iterations =  3.4

     negative rho (up, down):  6.614E-02 0.000E+00

     total cpu time spent up to now is      256.6 secs

     total energy              =   -9109.53295789 Ry
     estimated scf accuracy    <       0.00109048 Ry

     iteration # 14     ecut=    60.00 Ry     beta= 0.20
     Davidson diagonalization with overlap
     ethr =  4.96E-07,  avg # of iterations =  2.1

     negative rho (up, down):  6.652E-02 0.000E+00

     total cpu time spent up to now is      271.7 secs

     total energy              =   -9109.53305280 Ry
     estimated scf accuracy    <       0.00032764 Ry

     iteration # 15     ecut=    60.00 Ry     beta= 0.20
     Davidson diagonalization with overlap
     ethr =  1.49E-07,  avg # of iterations =  2.0

     negative rho (up, down):  6.655E-02 0.000E+00

     total cpu time spent up to now is      287.0 secs

     total energy              =   -9109.53306815 Ry
     estimated scf accuracy    <       0.00020238 Ry

     iteration # 16     ecut=    60.00 Ry     beta= 0.20
     Davidson diagonalization with overlap
     ethr =  9.20E-08,  avg # of iterations =  1.2

     negative rho (up, down):  6.662E-02 0.000E+00

     total cpu time spent up to now is      301.2 secs

     total energy              =   -9109.53307677 Ry
     estimated scf accuracy    <       0.00006631 Ry

     iteration # 17     ecut=    60.00 Ry     beta= 0.20
     Davidson diagonalization with overlap
     ethr =  3.01E-08,  avg # of iterations =  2.4

     negative rho (up, down):  6.667E-02 0.000E+00

     total cpu time spent up to now is      316.3 secs

     total energy              =   -9109.53308156 Ry
     estimated scf accuracy    <       0.00004738 Ry

     iteration # 18     ecut=    60.00 Ry     beta= 0.20
     Davidson diagonalization with overlap
     ethr =  2.15E-08,  avg # of iterations =  1.1

     negative rho (up, down):  6.668E-02 0.000E+00

     total cpu time spent up to now is      330.4 secs

     total energy              =   -9109.53308297 Ry
     estimated scf accuracy    <       0.00003756 Ry

     iteration # 19     ecut=    60.00 Ry     beta= 0.20
     Davidson diagonalization with overlap
     ethr =  1.71E-08,  avg # of iterations =  1.0

     negative rho (up, down):  6.666E-02 0.000E+00

     total cpu time spent up to now is      344.1 secs

     total energy              =   -9109.53308430 Ry
     estimated scf accuracy    <       0.00003054 Ry

     iteration # 20     ecut=    60.00 Ry     beta= 0.20
     Davidson diagonalization with overlap
     ethr =  1.39E-08,  avg # of iterations =  1.0

     negative rho (up, down):  6.664E-02 0.000E+00

     total cpu time spent up to now is      357.9 secs

     total energy              =   -9109.53308608 Ry
     estimated scf accuracy    <       0.00000235 Ry

     iteration # 21     ecut=    60.00 Ry     beta= 0.20
     Davidson diagonalization with overlap
     ethr =  1.07E-09,  avg # of iterations =  2.2

     negative rho (up, down):  6.663E-02 0.000E+00

     total cpu time spent up to now is      373.7 secs

     total energy              =   -9109.53308645 Ry
     estimated scf accuracy    <       0.00000143 Ry

     iteration # 22     ecut=    60.00 Ry     beta= 0.20
     Davidson diagonalization with overlap
     ethr =  6.50E-10,  avg # of iterations =  1.5

     negative rho (up, down):  6.658E-02 0.000E+00

     total cpu time spent up to now is      388.2 secs

     total energy              =   -9109.53308647 Ry
     estimated scf accuracy    <       0.00000058 Ry

     iteration # 23     ecut=    60.00 Ry     beta= 0.20
     Davidson diagonalization with overlap
     ethr =  2.62E-10,  avg # of iterations =  2.0

     negative rho (up, down):  6.656E-02 0.000E+00

     total cpu time spent up to now is      403.7 secs

     total energy              =   -9109.53308657 Ry
     estimated scf accuracy    <       0.00000022 Ry

     iteration # 24     ecut=    60.00 Ry     beta= 0.20
     Davidson diagonalization with overlap
     ethr =  1.01E-10,  avg # of iterations =  2.0

     negative rho (up, down):  6.654E-02 0.000E+00

     total cpu time spent up to now is      418.7 secs

     total energy              =   -9109.53308660 Ry
     estimated scf accuracy    <       0.00000010 Ry

     iteration # 25     ecut=    60.00 Ry     beta= 0.20
     Davidson diagonalization with overlap
     ethr =  4.36E-11,  avg # of iterations =  2.0

     negative rho (up, down):  6.653E-02 0.000E+00

     total cpu time spent up to now is      434.8 secs

     total energy              =   -9109.53308661 Ry
     estimated scf accuracy    <       0.00000004 Ry

     iteration # 26     ecut=    60.00 Ry     beta= 0.20
     Davidson diagonalization with overlap
     ethr =  1.98E-11,  avg # of iterations =  2.0

     negative rho (up, down):  6.653E-02 0.000E+00

     total cpu time spent up to now is      449.8 secs

     total energy              =   -9109.53308661 Ry
     estimated scf accuracy    <       0.00000003 Ry

     iteration # 27     ecut=    60.00 Ry     beta= 0.20
     Davidson diagonalization with overlap
     ethr =  1.19E-11,  avg # of iterations =  2.0

     negative rho (up, down):  6.651E-02 0.000E+00

     total cpu time spent up to now is      464.6 secs

     total energy              =   -9109.53308662 Ry
     estimated scf accuracy    <       0.00000002 Ry

     iteration # 28     ecut=    60.00 Ry     beta= 0.20
     Davidson diagonalization with overlap
     ethr =  1.07E-11,  avg # of iterations =  1.1

     negative rho (up, down):  6.650E-02 0.000E+00

     total cpu time spent up to now is      482.3 secs

     End of self-consistent calculation

          k = 0.0000 0.0000 0.0000 ( 85375 PWs)   bands (ev):

  -103.8021-103.7181-103.4270-103.3760-103.1947-102.5517 -68.7418 -68.3400
   -68.2107 -68.1041 -64.3565 -64.2804 -64.2296 -64.1259 -64.0941 -63.9960
   -63.9916 -63.9468 -63.8456 -63.7644 -63.7334 -63.7054 -63.6755 -63.6629
   -63.4658 -63.0904 -62.9786 -62.8778 -35.3570 -35.2068 -35.1014 -34.9321
   -34.9065 -34.7938 -34.7760 -34.7621 -34.6828 -34.6529 -34.6389 -34.5401
   -13.5086 -13.2545 -12.9157 -12.6943 -12.5056 -12.2931 -12.2356 -12.0345
   -11.8874 -11.8027  -6.6234  -6.3634  -6.1605  -6.0195  -5.8983  -5.7045
    -5.4938  -5.1484  -4.9362  -4.6233  -4.4650  -4.3207  -4.2113  -4.1393
    -4.0480  -3.8686  -3.6711  -3.5802  -3.5265  -3.4939  -3.2912  -3.1772
    -3.0968  -2.9071  -2.8621  -2.7495  -2.7143  -2.6292  -2.5535  -2.4874
    -2.2957  -2.2931  -2.1899  -2.1043  -2.0796  -2.0183  -1.9866  -1.9249
    -1.8160  -1.7164  -1.6566  -1.5094  -1.4578  -1.4219  -1.3545  -1.3426
    -1.2145  -1.1105  -1.0279  -0.8959  -0.8195  -0.7634  -0.6630  -0.5774
    -0.4217  -0.2781  -0.2628  -0.1753   0.0149   0.1138   0.2935   0.5552
     1.0071   1.0906   1.2807   1.3648   1.3749   1.4323   1.5597   1.7831
     1.9223   1.9872   2.2810   2.3382   2.5534   2.9183   2.9603   3.0816
     3.3236   3.4932   3.5785   3.6577

          k = 0.0000 0.5659 0.0000 ( 85323 PWs)   bands (ev):

  -103.8020-103.7182-103.4268-103.3761-103.1947-102.5517 -68.7413 -68.3394
   -68.2102 -68.1035 -64.3565 -64.2806 -64.2292 -64.1316 -64.0886 -63.9963
   -63.9914 -63.9469 -63.8455 -63.7693 -63.7286 -63.7055 -63.6755 -63.6631
   -63.4659 -63.0904 -62.9787 -62.8778 -35.3555 -35.2046 -35.1180 -34.9304
   -34.9041 -34.7919 -34.7794 -34.7738 -34.6806 -34.6562 -34.6510 -34.5574
   -13.3861 -13.1331 -12.8071 -12.5942 -12.4251 -12.2016 -12.1504 -11.9600
   -11.8207 -11.7111  -6.5087  -6.2485  -6.0305  -5.9073  -5.7655  -5.5667
    -5.3683  -5.0638  -4.8441  -4.5911  -4.4617  -4.3343  -4.2348  -4.1841
    -4.0650  -3.9272  -3.7205  -3.6442  -3.5011  -3.4379  -3.3082  -3.2351
    -3.1413  -2.9983  -2.9462  -2.8535  -2.8165  -2.7585  -2.6436  -2.4696
    -2.3900  -2.3388  -2.2851  -2.2137  -2.1770  -2.0823  -2.0234  -1.9363
    -1.8829  -1.7712  -1.7140  -1.6133  -1.5157  -1.4921  -1.4324  -1.3565
    -1.2964  -1.1926  -1.1011  -0.9784  -0.9380  -0.8538  -0.8102  -0.6392
    -0.5648  -0.4668  -0.3587  -0.2310  -0.0004   0.1075   0.2112   0.5306
     0.8742   0.9832   1.1236   1.2296   1.3034   1.3519   1.4200   1.4764
     1.6187   1.9316   2.0895   2.3957   2.4517   2.5830   2.6990   3.1032
     3.1592   3.3136   3.3890   3.4916

          k = 0.0000 1.1318 0.0000 ( 85388 PWs)   bands (ev):

  -103.8017-103.7184-103.4263-103.3766-103.1947-102.5517 -68.7399 -68.3380
   -68.2087 -68.1020 -64.3565 -64.2811 -64.2286 -64.1426 -64.0786 -63.9969
   -63.9912 -63.9473 -63.8457 -63.7792 -63.7194 -63.7054 -63.6754 -63.6637
   -63.4668 -63.0903 -62.9795 -62.8778 -35.3515 -35.1997 -35.1603 -34.9259
   -34.8981 -34.8242 -34.7869 -34.7687 -34.7006 -34.6749 -34.6463 -34.6020
   -13.0334 -12.7846 -12.5032 -12.3194 -12.1945 -11.9488 -11.9006 -11.7485
   -11.6381 -11.4503  -6.2028  -5.9400  -5.7049  -5.6315  -5.4179  -5.2391
    -5.0535  -4.9511  -4.6736  -4.6448  -4.5352  -4.4116  -4.3378  -4.2915
    -4.1341  -4.0349  -3.9207  -3.7571  -3.6860  -3.5594  -3.5078  -3.4755
    -3.3396  -3.2025  -3.1337  -3.0375  -2.9806  -2.8641  -2.7486  -2.7321
    -2.6853  -2.5808  -2.5063  -2.4356  -2.4044  -2.2746  -2.2374  -2.1157
    -2.0656  -1.9978  -1.8990  -1.8224  -1.6857  -1.6270  -1.5787  -1.5117
    -1.4235  -1.3404  -1.2884  -1.1603  -1.1274  -1.0876  -1.0561  -0.9026
    -0.8152  -0.6142  -0.4930  -0.3574  -0.3005   0.0195   0.3493   0.5444
     0.7807   0.8235   0.9499   1.0808   1.1459   1.2712   1.3430   1.4165
     1.5851   1.7726   1.8837   2.0739   2.2705   2.4326   2.5566   2.7828
     2.8846   3.1191   3.2831   3.6598

          k = 0.0000 1.6977 0.0000 ( 85466 PWs)   bands (ev):

  -103.8013-103.7188-103.4256-103.3772-103.1946-102.5517 -68.7381 -68.3362
   -68.2069 -68.1002 -64.3564 -64.2818 -64.2276 -64.1535 -64.0691 -63.9979
   -63.9910 -63.9478 -63.8456 -63.7890 -63.7106 -63.7053 -63.6754 -63.6646
   -63.4679 -63.0903 -62.9805 -62.8777 -35.3466 -35.2198 -35.1859 -34.9208
   -34.8941 -34.8751 -34.7811 -34.7699 -34.7469 -34.6724 -34.6533 -34.6392
   -12.5033 -12.2664 -12.0890 -11.9446 -11.8494 -11.6144 -11.5108 -11.4368
   -11.3889 -11.0787  -5.9438  -5.7511  -5.6571  -5.4996  -5.4053  -5.2637
    -5.1454  -5.0344  -4.9733  -4.7132  -4.4877  -4.4659  -4.4321  -4.3122
    -4.2674  -4.2174  -4.0520  -3.9705  -3.9148  -3.7678  -3.7276  -3.7048
    -3.6183  -3.3654  -3.2778  -3.2302  -3.1459  -3.0787  -3.0264  -2.8989
    -2.8203  -2.7526  -2.6845  -2.6653  -2.5618  -2.4022  -2.3699  -2.3104
    -2.2354  -2.0987  -2.0343  -1.9379  -1.8339  -1.7758  -1.7044  -1.6220
    -1.5503  -1.4536  -1.3936  -1.3293  -1.3193  -1.2039  -1.1615  -1.0472
    -0.9529  -0.8046  -0.7078  -0.6030  -0.3685  -0.1911   0.5597   0.6028
     0.7057   0.8530   1.0832   1.1445   1.3497   1.3920   1.4434   1.6254
     1.6379   1.7954   1.9052   2.1224   2.2749   2.5840   2.6530   2.8846
     3.1378   3.2102   3.3732   3.8344

          k = 0.0000 2.2635 0.0000 ( 85560 PWs)   bands (ev):

  -103.8010-103.7190-103.4251-103.3777-103.1946-102.5516 -68.7367 -68.3347
   -68.2054 -68.0988 -64.3564 -64.2824 -64.2264 -64.1614 -64.0626 -63.9990
   -63.9908 -63.9482 -63.8453 -63.7961 -63.7053 -63.7041 -63.6754 -63.6658
   -63.4687 -63.0903 -62.9813 -62.8778 -35.3426 -35.2608 -35.1814 -34.9296
   -34.9128 -34.8809 -34.8053 -34.7757 -34.7502 -34.7051 -34.6586 -34.6345
   -11.9310 -11.7406 -11.7220 -11.5864 -11.4731 -11.3226 -11.1629 -11.1258
   -11.0930 -10.7340  -6.5533  -6.3857  -6.2802  -6.1463  -5.7240  -5.4661
    -5.2997  -5.1317  -5.1268  -4.9410  -4.7739  -4.5282  -4.4373  -4.2112
    -4.1467  -4.0226  -3.9498  -3.8723  -3.7716  -3.7076  -3.6857  -3.5943
    -3.5702  -3.4909  -3.4468  -3.3556  -3.3186  -3.1496  -2.9998  -2.9468
    -2.7840  -2.7088  -2.6609  -2.5942  -2.5109  -2.4452  -2.3925  -2.3467
    -2.2991  -2.1632  -2.1026  -2.0437  -1.9850  -1.8986  -1.8140  -1.7267
    -1.6560  -1.5797  -1.5030  -1.3984  -1.3615  -1.2896  -1.1846  -1.0682
    -1.0173  -0.9110  -0.8473  -0.7788  -0.5399  -0.3342   0.4156   0.5107
     0.7181   0.9511   1.1043   1.1975   1.3978   1.6300   1.6488   1.8992
     1.9369   2.0612   2.2716   2.3248   2.4994   2.6327   3.0057   3.1496
     3.2210   3.3702   3.5922   3.6217

          k = 0.0000-2.8294 0.0000 ( 85560 PWs)   bands (ev):

  -103.8008-103.7191-103.4249-103.3778-103.1946-102.5516 -68.7361 -68.3341
   -68.2049 -68.0982 -64.3563 -64.2826 -64.2260 -64.1642 -64.0602 -63.9994
   -63.9907 -63.9483 -63.8452 -63.7987 -63.7053 -63.7018 -63.6753 -63.6664
   -63.4691 -63.0903 -62.9816 -62.8777 -35.3411 -35.2769 -35.1792 -34.9447
   -34.9124 -34.8789 -34.8215 -34.7740 -34.7485 -34.7214 -34.6569 -34.6326
   -11.6603 -11.5936 -11.4755 -11.3743 -11.2948 -11.2526 -11.0213 -10.9749
   -10.9443 -10.5985  -6.8812  -6.7540  -6.6169  -6.5129  -6.0425  -5.5922
    -5.4085  -5.3562  -5.2787  -5.2066  -4.5083  -4.3613  -4.3239  -4.2064
    -4.0737  -4.0494  -3.9032  -3.8666  -3.8059  -3.7196  -3.6392  -3.6018
    -3.4889  -3.4125  -3.3504  -3.2921  -3.1866  -3.1395  -2.9957  -2.9466
    -2.7375  -2.6748  -2.6174  -2.5862  -2.5187  -2.3818  -2.3383  -2.3294
    -2.2358  -2.1803  -2.1481  -2.1056  -2.0635  -1.9993  -1.8546  -1.8038
    -1.6601  -1.6276  -1.4803  -1.3924  -1.3071  -1.2943  -1.2932  -1.2415
    -1.0681  -0.9472  -0.7901  -0.7581  -0.6733  -0.5258   0.2757   0.4769
     0.7537   1.0425   1.0774   1.2246   1.3513   1.5551   1.7352   1.8838
     2.0365   2.1767   2.3310   2.4033   2.6636   2.7442   3.0425   3.2125
     3.4206   3.5923   3.6979   3.7642

          k =-0.5000 0.0000 0.0000 ( 85284 PWs)   bands (ev):

  -103.8021-103.7181-103.4270-103.3760-103.1947-102.5517 -68.7418 -68.3400
   -68.2107 -68.1041 -64.3565 -64.2803 -64.2294 -64.1258 -64.0940 -63.9960
   -63.9915 -63.9468 -63.8455 -63.7643 -63.7333 -63.7054 -63.6754 -63.6629
   -63.4656 -63.0903 -62.9784 -62.8778 -35.3570 -35.2068 -35.1014 -34.9321
   -34.9065 -34.7938 -34.7760 -34.7621 -34.6828 -34.6529 -34.6389 -34.5401
   -13.5067 -13.2612 -12.9051 -12.6954 -12.5070 -12.2948 -12.2535 -12.0026
   -11.9021 -11.8034  -6.6213  -6.3691  -6.1618  -6.0482  -5.8890  -5.6566
    -5.4788  -5.1619  -4.9551  -4.7199  -4.3982  -4.2686  -4.2316  -4.1335
    -4.0260  -3.8667  -3.6682  -3.5775  -3.5433  -3.4890  -3.3832  -3.1810
    -3.0622  -2.9259  -2.8631  -2.7247  -2.6970  -2.6135  -2.5332  -2.4801
    -2.3147  -2.2952  -2.1965  -2.1162  -2.0945  -2.0315  -1.9643  -1.9530
    -1.7741  -1.7166  -1.6449  -1.5229  -1.4660  -1.4018  -1.3895  -1.3344
    -1.1750  -1.0869  -1.0321  -0.9282  -0.8237  -0.7521  -0.6565  -0.5802
    -0.4361  -0.2898  -0.2473  -0.1762   0.0020   0.1124   0.3673   0.5502
     0.8449   1.1147   1.2705   1.2896   1.3763   1.4887   1.5811   1.8794
     1.9146   1.9769   2.2068   2.3342   2.5904   2.9324   3.0497   3.1064
     3.3752   3.4678   3.5025   3.6714

          k =-0.5000 0.5659 0.0000 ( 85310 PWs)   bands (ev):

  -103.8020-103.7182-103.4268-103.3761-103.1947-102.5517 -68.7413 -68.3394
   -68.2102 -68.1035 -64.3565 -64.2806 -64.2292 -64.1315 -64.0886 -63.9962
   -63.9914 -63.9470 -63.8455 -63.7693 -63.7286 -63.7055 -63.6755 -63.6631
   -63.4659 -63.0904 -62.9787 -62.8778 -35.3555 -35.2046 -35.1180 -34.9304
   -34.9041 -34.7919 -34.7794 -34.7738 -34.6806 -34.6562 -34.6510 -34.5574
   -13.3843 -13.1395 -12.7976 -12.5937 -12.4268 -12.2031 -12.1692 -11.9287
   -11.8344 -11.7121  -6.5068  -6.2540  -6.0318  -5.9324  -5.7569  -5.5195
    -5.3543  -5.0688  -4.8806  -4.6769  -4.4143  -4.3160  -4.2252  -4.1632
    -4.0246  -3.9294  -3.7235  -3.6635  -3.5067  -3.4255  -3.3932  -3.2174
    -3.1504  -2.9934  -2.9519  -2.8592  -2.7996  -2.7068  -2.6298  -2.4857
    -2.3857  -2.3613  -2.2729  -2.2156  -2.1764  -2.1060  -2.0302  -1.9423
    -1.8602  -1.7701  -1.6947  -1.6268  -1.5329  -1.4755  -1.4358  -1.3791
    -1.2543  -1.1723  -1.1167  -1.0087  -0.9167  -0.8560  -0.8030  -0.6374
    -0.5739  -0.4671  -0.3668  -0.2450   0.0035   0.1529   0.2270   0.5195
     0.8799   0.9650   1.0651   1.1917   1.3086   1.3850   1.4071   1.4731
     1.6024   1.9888   2.0133   2.4182   2.4576   2.5446   2.7747   3.0974
     3.2270   3.2587   3.4315   3.5335

          k =-0.5000 1.1318 0.0000 ( 85344 PWs)   bands (ev):

  -103.8017-103.7184-103.4263-103.3766-103.1947-102.5517 -68.7399 -68.3380
   -68.2087 -68.1020 -64.3564 -64.2811 -64.2286 -64.1426 -64.0785 -63.9969
   -63.9912 -63.9473 -63.8457 -63.7791 -63.7194 -63.7053 -63.6754 -63.6636
   -63.4668 -63.0903 -62.9794 -62.8777 -35.3515 -35.1997 -35.1603 -34.9259
   -34.8981 -34.8242 -34.7869 -34.7687 -34.7006 -34.6749 -34.6463 -34.6020
   -13.0319 -12.7903 -12.4971 -12.3147 -12.1966 -11.9482 -11.9224 -11.7188
   -11.6503 -11.4511  -6.2006  -5.9457  -5.7064  -5.6438  -5.4088  -5.2057
    -5.0505  -4.9416  -4.7103  -4.6965  -4.5210  -4.4308  -4.3445  -4.2661
    -4.0689  -3.9925  -3.9097  -3.7993  -3.7082  -3.5812  -3.5088  -3.4821
    -3.3308  -3.1948  -3.1335  -3.0593  -3.0083  -2.8574  -2.7518  -2.7068
    -2.6600  -2.5799  -2.5206  -2.4344  -2.3723  -2.3216  -2.2287  -2.1223
    -2.0604  -2.0009  -1.8874  -1.8067  -1.6921  -1.6314  -1.5457  -1.5237
    -1.4249  -1.3647  -1.2921  -1.1816  -1.1550  -1.0733  -1.0225  -0.8837
    -0.8408  -0.6262  -0.4648  -0.3517  -0.2993   0.0090   0.3882   0.5836
     0.7283   0.8207   1.0150   1.0943   1.1294   1.2187   1.3732   1.4076
     1.4837   1.7142   1.9100   2.0623   2.3082   2.4834   2.5698   2.7643
     2.8209   3.0869   3.3524   3.7395

          k =-0.5000 1.6977 0.0000 ( 85430 PWs)   bands (ev):

  -103.8013-103.7188-103.4256-103.3772-103.1946-102.5517 -68.7381 -68.3362
   -68.2069 -68.1002 -64.3563 -64.2817 -64.2276 -64.1535 -64.0691 -63.9979
   -63.9909 -63.9477 -63.8456 -63.7890 -63.7106 -63.7053 -63.6753 -63.6646
   -63.4679 -63.0902 -62.9805 -62.8777 -35.3466 -35.2198 -35.1859 -34.9208
   -34.8941 -34.8751 -34.7811 -34.7699 -34.7469 -34.6724 -34.6533 -34.6392
   -12.5024 -12.2703 -12.0879 -11.9392 -11.8499 -11.6126 -11.5294 -11.4126
   -11.3993 -11.0788  -5.9401  -5.7531  -5.6557  -5.4957  -5.4117  -5.2720
    -5.1366  -5.0506  -4.9639  -4.7166  -4.5394  -4.4620  -4.4114  -4.2688
    -4.2367  -4.1836  -4.0771  -4.0094  -3.9436  -3.7621  -3.7454  -3.6321
    -3.6002  -3.3762  -3.3522  -3.2220  -3.1265  -3.0970  -3.0415  -2.9106
    -2.7761  -2.7479  -2.7158  -2.6581  -2.4962  -2.4458  -2.3670  -2.3197
    -2.2277  -2.1123  -2.0121  -1.9686  -1.8290  -1.7675  -1.6993  -1.6194
    -1.5434  -1.4488  -1.4136  -1.3381  -1.3143  -1.1974  -1.1606  -1.0255
    -0.9691  -0.8161  -0.7109  -0.5989  -0.3717  -0.1941   0.5629   0.6388
     0.7316   0.9017   1.1016   1.1550   1.2621   1.3936   1.4358   1.5182
     1.6583   1.8047   1.9179   2.0785   2.3370   2.5408   2.7559   2.8815
     3.0107   3.1909   3.4511   3.8943

          k =-0.5000 2.2635 0.0000 ( 85544 PWs)   bands (ev):

  -103.8010-103.7190-103.4251-103.3777-103.1946-102.5516 -68.7367 -68.3347
   -68.2054 -68.0988 -64.3564 -64.2824 -64.2265 -64.1614 -64.0626 -63.9990
   -63.9908 -63.9482 -63.8454 -63.7962 -63.7053 -63.7041 -63.6753 -63.6658
   -63.4688 -63.0903 -62.9813 -62.8777 -35.3426 -35.2608 -35.1814 -34.9296
   -34.9128 -34.8809 -34.8053 -34.7757 -34.7502 -34.7051 -34.6586 -34.6345
   -11.9307 -11.7405 -11.7229 -11.5867 -11.4727 -11.3203 -11.1690 -11.1189
   -11.0958 -10.7340  -6.5545  -6.3900  -6.2740  -6.1423  -5.7282  -5.4660
    -5.3026  -5.1603  -5.1068  -4.9177  -4.7869  -4.5291  -4.4287  -4.2132
    -4.1479  -4.0406  -3.9637  -3.8660  -3.7711  -3.7032  -3.6551  -3.6260
    -3.5609  -3.4864  -3.4257  -3.3497  -3.3202  -3.1503  -3.0194  -2.9753
    -2.7458  -2.6989  -2.6512  -2.5854  -2.5335  -2.4389  -2.3933  -2.3515
    -2.2916  -2.2009  -2.1101  -2.0492  -1.9641  -1.8991  -1.8129  -1.7288
    -1.6494  -1.5872  -1.5024  -1.4035  -1.3588  -1.2917  -1.1599  -1.0727
    -1.0295  -0.9121  -0.8385  -0.7932  -0.5396  -0.3406   0.4331   0.5015
     0.7344   1.0363   1.0799   1.2738   1.3112   1.5026   1.7034   1.8607
     1.9891   2.0775   2.2424   2.3075   2.5138   2.6014   3.0543   3.1666
     3.2662   3.3897   3.4182   3.6479

          k =-0.5000-2.8294 0.0000 ( 85544 PWs)   bands (ev):

  -103.8008-103.7191-103.4249-103.3778-103.1946-102.5516 -68.7361 -68.3341
   -68.2049 -68.0982 -64.3563 -64.2826 -64.2259 -64.1642 -64.0602 -63.9994
   -63.9907 -63.9483 -63.8452 -63.7987 -63.7053 -63.7017 -63.6753 -63.6664
   -63.4691 -63.0903 -62.9816 -62.8777 -35.3411 -35.2769 -35.1792 -34.9447
   -34.9124 -34.8789 -34.8215 -34.7740 -34.7485 -34.7214 -34.6569 -34.6326
   -11.6603 -11.5936 -11.4756 -11.3743 -11.2946 -11.2526 -11.0253 -10.9651
   -10.9502 -10.5985  -6.8830  -6.7591  -6.6113  -6.5085  -6.0445  -5.5847
    -5.4268  -5.3542  -5.2699  -5.2081  -4.5130  -4.3648  -4.3225  -4.1927
    -4.0687  -4.0467  -3.9014  -3.8783  -3.8051  -3.7267  -3.6495  -3.6152
    -3.4665  -3.4401  -3.3389  -3.2884  -3.1851  -3.1354  -3.0025  -2.9292
    -2.7250  -2.6570  -2.6099  -2.5834  -2.5260  -2.3729  -2.3457  -2.3302
    -2.2574  -2.1871  -2.1444  -2.1192  -2.0573  -1.9904  -1.8554  -1.8100
    -1.6596  -1.6401  -1.4814  -1.4036  -1.3144  -1.2943  -1.2724  -1.2428
    -1.0739  -0.9490  -0.7937  -0.7548  -0.6653  -0.5222   0.2806   0.4762
     0.7589   1.0496   1.1131   1.2687   1.2977   1.4569   1.7619   1.9620
     2.0373   2.1249   2.2960   2.4412   2.6645   2.6957   3.1195   3.2317
     3.4161   3.5453   3.6824   3.7495

     the Fermi energy is     0.1814 ev

!    total energy              =   -9109.53308662 Ry
     total all-electron energy =     -9109.533087 Ry
     estimated scf accuracy    <          9.3E-09 Ry
     smearing contrib. (-TS)   =      -0.00007864 Ry
     internal energy E=F+TS    =   -9109.53300797 Ry

     The total energy is F=E-TS. E is the sum of the following terms:
     one-electron contribution =  -16738.60316799 Ry
     hartree contribution      =    8227.97010444 Ry
     xc contribution           =    -365.95489537 Ry
     ewald contribution        =    6034.81432270 Ry
     one-center paw contrib.   =   -6267.75937176 Ry

     convergence has been achieved in  28 iterations

     negative rho (up, down):  6.650E-02 0.000E+00

     Forces acting on atoms (cartesian axes, Ry/au):

     atom    1 type  1   force =     0.03502071    0.05512968   -0.00842405
     atom    2 type  1   force =     0.01202197   -0.06670678    0.02821954
     atom    3 type  1   force =    -0.05001754    0.06991228   -0.03259656
     atom    4 type  1   force =    -0.02958337   -0.06847758    0.03423580
     atom    5 type  2   force =    -0.00944720    0.07654154   -0.01656591
     atom    6 type  2   force =    -0.01720720   -0.07441879    0.01743971
     atom    7 type  2   force =     0.02420998    0.07296531   -0.02005227
     atom    8 type  2   force =     0.03802878   -0.06902261    0.01735399
     atom    9 type  2   force =     0.00423338    0.03882513   -0.03395360
     atom   10 type  2   force =     0.00209187   -0.03355752    0.00646703
     atom   11 type  3   force =     0.03754111   -0.04979038   -0.06570077
     atom   12 type  3   force =     0.01614564    0.04985418    0.06111510
     atom   13 type  3   force =    -0.00722993    0.03033690   -0.04946636
     atom   14 type  3   force =    -0.02064746   -0.02928914    0.05704951
     atom   15 type  3   force =    -0.01393134   -0.05258238   -0.05930048
     atom   16 type  3   force =    -0.02106068    0.05045827    0.06036433
     atom   17 type  3   force =     0.00527245    0.03045869   -0.04953152
     atom   18 type  3   force =     0.02526474   -0.02950655    0.01859186
     atom   19 type  3   force =    -0.03362352    0.03021815   -0.01283358
     atom   20 type  3   force =     0.00291762   -0.03134839    0.04758826

     Total force =     0.316910     Total SCF correction =     0.000556


     Computing stress (Cartesian axis) and pressure


     negative rho (up, down):  6.650E-02 0.000E+00
          total   stress  (Ry/bohr**3)                   (kbar)     P=       22.97
   0.00007103  -0.00000172   0.00000384           10.45       -0.25        0.56
  -0.00000172   0.00026141  -0.00003339           -0.25       38.46       -4.91
   0.00000384  -0.00003339   0.00013591            0.56       -4.91       19.99


     BFGS Geometry Optimization
     Energy error            =      0.0E+00 Ry
     Gradient error          =      7.7E-02 Ry/Bohr

     number of scf cycles    =   1
     number of bfgs steps    =   0

     energy             new  =   -9109.5330866151 Ry

     new trust radius        =       0.0919348505 bohr
     new conv_thr            =       0.0000000100 Ry


ATOMIC_POSITIONS (angstrom)
Ta           15.4103729878        0.9440969341       12.4393824170
Ta            6.5779122650        2.7094699741       12.6069294723
Ta            2.2386874722        0.9519195496       12.4264166046
Ta           11.0697985031        2.7085329083       12.6102732902
Ni           12.8594089165        0.9554276003       11.7529232907
Ni            4.0349944661        2.7053889524       13.2833726466
Ni            4.8052780910        0.9535351456       11.7508117545
Ni           13.6328845776        2.7082444883       13.2835843471
Ni            8.8305868744        0.9354689372       12.3502381256
Ni            0.0091838696        2.7270118044       12.6710320163
Te           14.2329082758        2.7184217461       10.5004894004
Te            5.4012657590        0.9413052592       14.5329128221
Te           10.5916072036        0.9309771610       10.4931574049
Te            1.7642239167        2.7292705349       14.5466842552
Te            3.4363165465        2.7169442851       10.5036530777
Te           12.2528447073        0.9416249307       14.5327359736
Te            7.0644084803        0.9310416065       10.4929603202
Te           15.8952714292        2.7291554880       14.5265055149
Te           -0.0094938776        0.9309143182       10.8308278269
Te            8.8301018992        2.7281808299       14.2233604391



     Writing config-only to output data dir /ddn/data/physics/eamoujaes/2D-Ta2Ni3Te5/ELASTIC/C12/OUT/ta2ni3te5.save/
     NEW-OLD atomic charge density approx. for the potential

     negative rho (up, down):  6.491E-02 0.000E+00

     total cpu time spent up to now is      557.3 secs

     Self-consistent Calculation

     iteration #  1     ecut=    60.00 Ry     beta= 0.20
     Davidson diagonalization with overlap
     ethr =  1.00E-06,  avg # of iterations = 15.2

     negative rho (up, down):  6.499E-02 0.000E+00

     total cpu time spent up to now is      609.1 secs

     total energy              =   -9109.47358236 Ry
     estimated scf accuracy    <       0.36505665 Ry

     iteration #  2     ecut=    60.00 Ry     beta= 0.20
     Davidson diagonalization with overlap
     ethr =  1.66E-04,  avg # of iterations =  3.0

     negative rho (up, down):  6.510E-02 0.000E+00

     total cpu time spent up to now is      626.0 secs

     total energy              =   -9109.46745168 Ry
     estimated scf accuracy    <       2.62062091 Ry

     iteration #  3     ecut=    60.00 Ry     beta= 0.20
     Davidson diagonalization with overlap
     ethr =  1.66E-04,  avg # of iterations =  2.0

     negative rho (up, down):  6.517E-02 0.000E+00

     total cpu time spent up to now is      641.0 secs

     total energy              =   -9109.60805727 Ry
     estimated scf accuracy    <       0.12729513 Ry

     iteration #  4     ecut=    60.00 Ry     beta= 0.20
     Davidson diagonalization with overlap
     ethr =  5.79E-05,  avg # of iterations =  1.1

     negative rho (up, down):  6.526E-02 0.000E+00

     total cpu time spent up to now is      660.1 secs

     total energy              =   -9109.61439365 Ry
     estimated scf accuracy    <       0.01466737 Ry

     iteration #  5     ecut=    60.00 Ry     beta= 0.20
     Davidson diagonalization with overlap
     ethr =  6.67E-06,  avg # of iterations =  2.0

     negative rho (up, down):  6.534E-02 0.000E+00

     total cpu time spent up to now is      675.5 secs

     total energy              =   -9109.61332648 Ry
     estimated scf accuracy    <       0.01447639 Ry

     iteration #  6     ecut=    60.00 Ry     beta= 0.20
     Davidson diagonalization with overlap
     ethr =  6.58E-06,  avg # of iterations =  1.0

     negative rho (up, down):  6.539E-02 0.000E+00

     total cpu time spent up to now is      689.3 secs

     total energy              =   -9109.61279973 Ry
     estimated scf accuracy    <       0.01276213 Ry

     iteration #  7     ecut=    60.00 Ry     beta= 0.20
     Davidson diagonalization with overlap
     ethr =  5.80E-06,  avg # of iterations =  1.0

     negative rho (up, down):  6.555E-02 0.000E+00

     total cpu time spent up to now is      703.0 secs

     total energy              =   -9109.61073813 Ry
     estimated scf accuracy    <       0.00828657 Ry

     iteration #  8     ecut=    60.00 Ry     beta= 0.20
     Davidson diagonalization with overlap
     ethr =  3.77E-06,  avg # of iterations =  1.0

     negative rho (up, down):  6.561E-02 0.000E+00

     total cpu time spent up to now is      723.1 secs

     total energy              =   -9109.61037996 Ry
     estimated scf accuracy    <       0.00361685 Ry

     iteration #  9     ecut=    60.00 Ry     beta= 0.20
     Davidson diagonalization with overlap
     ethr =  1.64E-06,  avg # of iterations =  1.0

     negative rho (up, down):  6.567E-02 0.000E+00

     total cpu time spent up to now is      736.8 secs

     total energy              =   -9109.61011899 Ry
     estimated scf accuracy    <       0.00175811 Ry

     iteration # 10     ecut=    60.00 Ry     beta= 0.20
     Davidson diagonalization with overlap
     ethr =  7.99E-07,  avg # of iterations =  1.0

     negative rho (up, down):  6.572E-02 0.000E+00

     total cpu time spent up to now is      750.6 secs

     total energy              =   -9109.60999011 Ry
     estimated scf accuracy    <       0.00083139 Ry

     iteration # 11     ecut=    60.00 Ry     beta= 0.20
     Davidson diagonalization with overlap
     ethr =  3.78E-07,  avg # of iterations =  1.0

     negative rho (up, down):  6.573E-02 0.000E+00

     total cpu time spent up to now is      764.3 secs

     total energy              =   -9109.61002234 Ry
     estimated scf accuracy    <       0.00015897 Ry

     iteration # 12     ecut=    60.00 Ry     beta= 0.20
     Davidson diagonalization with overlap
     ethr =  7.23E-08,  avg # of iterations =  2.0

     negative rho (up, down):  6.575E-02 0.000E+00

     total cpu time spent up to now is      779.3 secs

     total energy              =   -9109.61000599 Ry
     estimated scf accuracy    <       0.00007821 Ry

     iteration # 13     ecut=    60.00 Ry     beta= 0.20
     Davidson diagonalization with overlap
     ethr =  3.55E-08,  avg # of iterations =  1.1

     negative rho (up, down):  6.577E-02 0.000E+00

     total cpu time spent up to now is      794.6 secs

     total energy              =   -9109.60999926 Ry
     estimated scf accuracy    <       0.00003154 Ry

     iteration # 14     ecut=    60.00 Ry     beta= 0.20
     Davidson diagonalization with overlap
     ethr =  1.43E-08,  avg # of iterations =  2.0

     negative rho (up, down):  6.578E-02 0.000E+00

     total cpu time spent up to now is      812.8 secs

     total energy              =   -9109.61000198 Ry
     estimated scf accuracy    <       0.00000502 Ry

     iteration # 15     ecut=    60.00 Ry     beta= 0.20
     Davidson diagonalization with overlap
     ethr =  2.28E-09,  avg # of iterations =  4.1

     negative rho (up, down):  6.578E-02 0.000E+00

     total cpu time spent up to now is      830.8 secs

     total energy              =   -9109.61000276 Ry
     estimated scf accuracy    <       0.00000432 Ry

     iteration # 16     ecut=    60.00 Ry     beta= 0.20
     Davidson diagonalization with overlap
     ethr =  1.96E-09,  avg # of iterations =  1.1

     negative rho (up, down):  6.578E-02 0.000E+00

     total cpu time spent up to now is      844.9 secs

     total energy              =   -9109.61000230 Ry
     estimated scf accuracy    <       0.00000250 Ry

     iteration # 17     ecut=    60.00 Ry     beta= 0.20
     Davidson diagonalization with overlap
     ethr =  1.13E-09,  avg # of iterations =  1.0

     negative rho (up, down):  6.578E-02 0.000E+00

     total cpu time spent up to now is      864.5 secs

     total energy              =   -9109.61000236 Ry
     estimated scf accuracy    <       0.00000055 Ry

     iteration # 18     ecut=    60.00 Ry     beta= 0.20
     Davidson diagonalization with overlap
     ethr =  2.48E-10,  avg # of iterations =  1.9

     negative rho (up, down):  6.578E-02 0.000E+00

     total cpu time spent up to now is      880.0 secs

     total energy              =   -9109.61000240 Ry
     estimated scf accuracy    <       0.00000068 Ry

     iteration # 19     ecut=    60.00 Ry     beta= 0.20
     Davidson diagonalization with overlap
     ethr =  2.48E-10,  avg # of iterations =  1.0

     negative rho (up, down):  6.578E-02 0.000E+00

     total cpu time spent up to now is      893.8 secs

     total energy              =   -9109.61000246 Ry
     estimated scf accuracy    <       0.00000013 Ry

     iteration # 20     ecut=    60.00 Ry     beta= 0.20
     Davidson diagonalization with overlap
     ethr =  5.76E-11,  avg # of iterations =  2.0

     negative rho (up, down):  6.578E-02 0.000E+00

     total cpu time spent up to now is      908.7 secs

     total energy              =   -9109.61000245 Ry
     estimated scf accuracy    <       0.00000007 Ry

     iteration # 21     ecut=    60.00 Ry     beta= 0.20
     Davidson diagonalization with overlap
     ethr =  3.28E-11,  avg # of iterations =  1.2

     negative rho (up, down):  6.577E-02 0.000E+00

     total cpu time spent up to now is      922.9 secs

     total energy              =   -9109.61000245 Ry
     estimated scf accuracy    <       0.00000011 Ry

     iteration # 22     ecut=    60.00 Ry     beta= 0.20
     Davidson diagonalization with overlap
     ethr =  3.28E-11,  avg # of iterations =  1.0

     negative rho (up, down):  6.577E-02 0.000E+00

     total cpu time spent up to now is      936.6 secs

     total energy              =   -9109.61000246 Ry
     estimated scf accuracy    <       0.00000004 Ry

     iteration # 23     ecut=    60.00 Ry     beta= 0.20
     Davidson diagonalization with overlap
     ethr =  1.76E-11,  avg # of iterations =  1.0

     negative rho (up, down):  6.577E-02 0.000E+00

     total cpu time spent up to now is      950.2 secs

     total energy              =   -9109.61000246 Ry
     estimated scf accuracy    <       0.00000002 Ry

     iteration # 24     ecut=    60.00 Ry     beta= 0.20
     Davidson diagonalization with overlap
     ethr =  7.49E-12,  avg # of iterations =  1.8

     negative rho (up, down):  6.577E-02 0.000E+00

     total cpu time spent up to now is      964.7 secs

     End of self-consistent calculation

          k = 0.0000 0.0000 0.0000 ( 85375 PWs)   bands (ev):

  -103.7242-103.6316-103.3752-103.3155-103.1679-102.5713 -68.7518 -68.3713
   -68.2458 -68.1590 -64.2727 -64.1861 -64.1390 -64.0328 -64.0139 -63.9349
   -63.9220 -63.8795 -63.7706 -63.7091 -63.6763 -63.6729 -63.6552 -63.6180
   -63.4290 -63.1043 -62.9927 -62.9047 -35.3564 -35.2016 -35.0934 -34.9458
   -34.9171 -34.8151 -34.7875 -34.7690 -34.7170 -34.6901 -34.6536 -34.5659
   -13.3942 -13.1409 -12.8277 -12.6100 -12.4521 -12.2429 -12.1811 -11.9939
   -11.8439 -11.8022  -6.5637  -6.3151  -6.0986  -5.9415  -5.8455  -5.6308
    -5.4231  -5.0457  -4.8504  -4.5200  -4.3448  -4.1971  -4.1261  -4.0349
    -3.9437  -3.7510  -3.6011  -3.4839  -3.4597  -3.3347  -3.2593  -3.0360
    -2.9336  -2.8329  -2.7875  -2.6723  -2.6281  -2.5723  -2.4681  -2.4145
    -2.2514  -2.2393  -2.1563  -2.1001  -1.9966  -1.9937  -1.9618  -1.9044
    -1.7639  -1.6612  -1.5953  -1.4829  -1.4669  -1.4167  -1.3654  -1.3165
    -1.1774  -1.1192  -1.0067  -0.8346  -0.7764  -0.6817  -0.6098  -0.5895
    -0.3483  -0.2457  -0.2278  -0.1943   0.0086   0.0635   0.2768   0.5068
     0.9681   1.0773   1.2601   1.3063   1.3443   1.3766   1.5422   1.7445
     1.9140   1.9756   2.2381   2.3595   2.5406   2.9056   2.9657   3.0941
     3.2901   3.4786   3.5773   3.6566

          k = 0.0000 0.5659 0.0000 ( 85323 PWs)   bands (ev):

  -103.7241-103.6316-103.3751-103.3156-103.1679-102.5713 -68.7513 -68.3708
   -68.2452 -68.1585 -64.2727 -64.1863 -64.1387 -64.0394 -64.0073 -63.9348
   -63.9223 -63.8795 -63.7706 -63.7126 -63.6763 -63.6694 -63.6551 -63.6182
   -63.4291 -63.1043 -62.9928 -62.9047 -35.3549 -35.1993 -35.1100 -34.9441
   -34.9148 -34.8132 -34.7861 -34.7852 -34.7148 -34.6883 -34.6706 -34.5829
   -13.2720 -13.0202 -12.7183 -12.5105 -12.3702 -12.1508 -12.0948 -11.9179
   -11.7738 -11.7124  -6.4466  -6.1983  -5.9663  -5.8297  -5.7115  -5.4917
    -5.2980  -4.9518  -4.7559  -4.4824  -4.3288  -4.2161  -4.1385  -4.0687
    -3.9713  -3.8185  -3.6270  -3.5686  -3.4231  -3.3291  -3.2410  -3.0839
    -3.0328  -2.8990  -2.8513  -2.7813  -2.7488  -2.6861  -2.5653  -2.3920
    -2.3134  -2.2918  -2.2307  -2.1757  -2.1405  -2.0479  -1.9940  -1.8936
    -1.8380  -1.7597  -1.6684  -1.5667  -1.5153  -1.4712  -1.4178  -1.3076
    -1.2545  -1.2022  -1.0829  -0.9320  -0.9015  -0.8015  -0.7576  -0.6468
    -0.5839  -0.4805  -0.3391  -0.2238  -0.0069   0.1087   0.1840   0.5062
     0.8431   0.9406   1.1088   1.2211   1.2496   1.3184   1.3483   1.4514
     1.6125   1.8881   2.0914   2.3866   2.4355   2.5623   2.6851   3.1300
     3.1773   3.3101   3.3786   3.4747

          k = 0.0000 1.1318 0.0000 ( 85388 PWs)   bands (ev):

  -103.7239-103.6318-103.3747-103.3160-103.1679-102.5712 -68.7499 -68.3693
   -68.2438 -68.1570 -64.2727 -64.1868 -64.1384 -64.0503 -63.9971 -63.9347
   -63.9230 -63.8798 -63.7711 -63.7202 -63.6762 -63.6623 -63.6551 -63.6187
   -63.4299 -63.1042 -62.9937 -62.9047 -35.3509 -35.1932 -35.1532 -34.9396
   -34.9087 -34.8304 -34.8084 -34.7796 -34.7151 -34.7091 -34.6835 -34.6270
   -12.9199 -12.6735 -12.4104 -12.2383 -12.1340 -11.8949 -11.8429 -11.7029
   -11.5843 -11.4532  -6.1340  -5.8841  -5.6272  -5.5545  -5.3510  -5.1475
    -4.9773  -4.8052  -4.5487  -4.5407  -4.3880  -4.3019  -4.2293  -4.2081
    -4.0470  -3.9544  -3.8414  -3.6593  -3.5936  -3.4875  -3.4413  -3.4044
    -3.2670  -3.1099  -3.0452  -2.9560  -2.8792  -2.7770  -2.6901  -2.6552
    -2.6317  -2.5162  -2.4502  -2.3643  -2.3528  -2.2226  -2.1733  -2.0747
    -2.0297  -1.9679  -1.8475  -1.7860  -1.6609  -1.6025  -1.5371  -1.4907
    -1.4078  -1.3626  -1.2600  -1.1322  -1.0933  -1.0671  -1.0387  -0.8874
    -0.8322  -0.6375  -0.4781  -0.3675  -0.3277   0.0043   0.3556   0.5256
     0.7733   0.8060   0.9269   1.0650   1.1123   1.2577   1.2874   1.3834
     1.5700   1.7683   1.8439   2.0442   2.2393   2.4179   2.5376   2.7585
     2.8537   3.0709   3.2540   3.6531

          k = 0.0000 1.6977 0.0000 ( 85466 PWs)   bands (ev):

  -103.7236-103.6321-103.3742-103.3163-103.1679-102.5712 -68.7481 -68.3676
   -68.2420 -68.1553 -64.2727 -64.1875 -64.1379 -64.0602 -63.9879 -63.9345
   -63.9241 -63.8801 -63.7715 -63.7283 -63.6761 -63.6550 -63.6548 -63.6196
   -63.4310 -63.1042 -62.9947 -62.9046 -35.3461 -35.2069 -35.1848 -34.9342
   -34.9025 -34.8832 -34.8027 -34.7772 -34.7644 -34.7032 -34.6822 -34.6754
   -12.3883 -12.1580 -11.9880 -11.8652 -11.7787 -11.5550 -11.4502 -11.3877
   -11.3274 -11.0833  -5.8542  -5.6254  -5.5601  -5.3913  -5.2998  -5.1563
    -5.0430  -4.9380  -4.8688  -4.6347  -4.4315  -4.4090  -4.3687  -4.2212
    -4.1840  -4.1460  -3.9910  -3.8846  -3.8423  -3.6961  -3.6497  -3.6304
    -3.5548  -3.3031  -3.2145  -3.1482  -3.0788  -3.0225  -2.9567  -2.8071
    -2.7446  -2.6605  -2.6174  -2.5881  -2.5058  -2.3437  -2.3058  -2.2535
    -2.1974  -2.0357  -1.9849  -1.9131  -1.7930  -1.7410  -1.6550  -1.6020
    -1.5221  -1.4409  -1.3553  -1.3406  -1.2733  -1.1765  -1.1303  -1.0378
    -0.9599  -0.8191  -0.7081  -0.5935  -0.4037  -0.2056   0.5668   0.5954
     0.7174   0.8333   1.0852   1.1111   1.3434   1.3747   1.4303   1.6121
     1.6262   1.7484   1.8683   2.0754   2.2280   2.5394   2.6277   2.8438
     3.0930   3.1502   3.3448   3.8060

          k = 0.0000 2.2635 0.0000 ( 85560 PWs)   bands (ev):

  -103.7233-103.6323-103.3739-103.3167-103.1678-102.5712 -68.7467 -68.3661
   -68.2406 -68.1538 -64.2727 -64.1882 -64.1372 -64.0673 -63.9816 -63.9344
   -63.9252 -63.8804 -63.7714 -63.7345 -63.6761 -63.6550 -63.6491 -63.6208
   -63.4319 -63.1041 -62.9955 -62.9046 -35.3421 -35.2492 -35.1789 -34.9327
   -34.9272 -34.8930 -34.8150 -34.7976 -34.7646 -34.7265 -34.6954 -34.6719
   -11.8032 -11.6350 -11.6280 -11.4918 -11.3867 -11.2618 -11.0898 -11.0728
   -11.0361 -10.7450  -6.4120  -6.2879  -6.1709  -6.0700  -5.6601  -5.3641
    -5.2115  -5.0987  -5.0492  -4.8739  -4.7019  -4.4738  -4.3504  -4.1689
    -4.0439  -3.9302  -3.8625  -3.7712  -3.6958  -3.6702  -3.6229  -3.5263
    -3.5072  -3.4487  -3.3644  -3.3148  -3.2251  -3.0557  -2.9028  -2.8643
    -2.7119  -2.6132  -2.5906  -2.5243  -2.4454  -2.3676  -2.3349  -2.2823
    -2.2580  -2.0967  -2.0643  -2.0191  -1.9228  -1.8536  -1.7745  -1.6957
    -1.6110  -1.5373  -1.4660  -1.3665  -1.3387  -1.2816  -1.1663  -1.0406
    -1.0044  -0.9087  -0.8412  -0.7769  -0.5705  -0.3470   0.4366   0.4936
     0.7198   0.9334   1.0552   1.1780   1.3774   1.5986   1.6246   1.8762
     1.9349   2.0276   2.2264   2.2936   2.4505   2.5988   2.9661   3.1249
     3.2109   3.3237   3.5544   3.5948

          k = 0.0000-2.8294 0.0000 ( 85560 PWs)   bands (ev):

  -103.7232-103.6323-103.3737-103.3168-103.1678-102.5712 -68.7462 -68.3656
   -68.2400 -68.1533 -64.2727 -64.1883 -64.1369 -64.0698 -63.9793 -63.9343
   -63.9256 -63.8804 -63.7713 -63.7368 -63.6761 -63.6550 -63.6469 -63.6214
   -63.4322 -63.1041 -62.9958 -62.9045 -35.3406 -35.2653 -35.1765 -34.9468
   -34.9276 -34.8910 -34.8313 -34.7960 -34.7626 -34.7426 -34.6936 -34.6699
   -11.5147 -11.4903 -11.3790 -11.2825 -11.2019 -11.1902 -10.9421 -10.9233
   -10.8847 -10.6187  -6.7430  -6.6637  -6.5078  -6.4407  -5.9928  -5.5166
    -5.3930  -5.2818  -5.2075  -5.1365  -4.4027  -4.2948  -4.2369  -4.1033
    -4.0422  -3.9701  -3.7990  -3.7642  -3.7344  -3.6907  -3.5900  -3.5540
    -3.4204  -3.3504  -3.2719  -3.1997  -3.0745  -3.0367  -2.9376  -2.8687
    -2.6224  -2.5975  -2.5549  -2.4774  -2.4593  -2.3561  -2.2699  -2.2439
    -2.1965  -2.1334  -2.0872  -2.0678  -2.0432  -1.9137  -1.8421  -1.7273
    -1.6344  -1.5959  -1.4294  -1.3813  -1.2739  -1.2715  -1.2526  -1.2187
    -1.0431  -0.9407  -0.8102  -0.7581  -0.6890  -0.5519   0.2956   0.4576
     0.7626   0.9707   1.0536   1.1961   1.3516   1.4802   1.7137   1.8422
     2.0211   2.1696   2.2702   2.3495   2.6197   2.6954   3.0216   3.1537
     3.4413   3.6091   3.7272   3.7566

          k =-0.5000 0.0000 0.0000 ( 85284 PWs)   bands (ev):

  -103.7242-103.6316-103.3752-103.3155-103.1679-102.5713 -68.7518 -68.3713
   -68.2458 -68.1590 -64.2726 -64.1861 -64.1388 -64.0328 -64.0138 -63.9348
   -63.9220 -63.8794 -63.7704 -63.7091 -63.6763 -63.6728 -63.6551 -63.6181
   -63.4288 -63.1043 -62.9926 -62.9047 -35.3564 -35.2016 -35.0934 -34.9458
   -34.9171 -34.8151 -34.7875 -34.7690 -34.7170 -34.6901 -34.6536 -34.5659
   -13.3919 -13.1494 -12.8140 -12.6124 -12.4531 -12.2469 -12.1999 -11.9589
   -11.8598 -11.8027  -6.5611  -6.3214  -6.1000  -5.9748  -5.8370  -5.5780
    -5.4014  -5.0673  -4.8612  -4.6265  -4.2644  -4.1733  -4.1393  -4.0037
    -3.9318  -3.7512  -3.5994  -3.4863  -3.4687  -3.3394  -3.3276  -3.0372
    -2.9299  -2.8476  -2.7826  -2.6377  -2.6165  -2.5504  -2.4541  -2.4052
    -2.2747  -2.2408  -2.1706  -2.1068  -2.0211  -1.9985  -1.9422  -1.9174
    -1.7348  -1.6617  -1.5809  -1.5000  -1.4729  -1.4074  -1.3865  -1.3062
    -1.1757  -1.0748  -0.9661  -0.8676  -0.7994  -0.6842  -0.6270  -0.5749
    -0.3583  -0.2386  -0.2263  -0.1956  -0.0084   0.0601   0.3644   0.5110
     0.7886   1.0824   1.2500   1.2733   1.3271   1.4290   1.5666   1.8430
     1.9140   1.9560   2.1423   2.3582   2.5967   2.9169   3.0619   3.1096
     3.3428   3.4645   3.4797   3.6624

          k =-0.5000 0.5659 0.0000 ( 85310 PWs)   bands (ev):

  -103.7241-103.6316-103.3751-103.3156-103.1679-102.5713 -68.7513 -68.3708
   -68.2452 -68.1585 -64.2727 -64.1863 -64.1387 -64.0394 -64.0073 -63.9348
   -63.9223 -63.8795 -63.7706 -63.7126 -63.6763 -63.6694 -63.6551 -63.6182
   -63.4290 -63.1043 -62.9928 -62.9047 -35.3549 -35.1993 -35.1100 -34.9441
   -34.9148 -34.8132 -34.7861 -34.7852 -34.7148 -34.6883 -34.6706 -34.5829
   -13.2699 -13.0284 -12.7057 -12.5109 -12.3716 -12.1547 -12.1145 -11.8839
   -11.7879 -11.7134  -6.4440  -6.2045  -5.9680  -5.8583  -5.7046  -5.4391
    -5.2770  -4.9634  -4.7873  -4.5757  -4.2761  -4.2178  -4.1252  -4.0288
    -3.9336  -3.8210  -3.6326  -3.5780  -3.4416  -3.3484  -3.2758  -3.0849
    -3.0437  -2.8985  -2.8440  -2.7842  -2.7397  -2.6257  -2.5569  -2.4173
    -2.3252  -2.2822  -2.2241  -2.1723  -2.1341  -2.0854  -2.0030  -1.8958
    -1.8261  -1.7416  -1.6684  -1.5758  -1.5157  -1.4738  -1.4164  -1.3348
    -1.2307  -1.1411  -1.0861  -0.9862  -0.8728  -0.8172  -0.7477  -0.6503
    -0.5953  -0.4837  -0.3379  -0.2281   0.0017   0.1413   0.1957   0.5048
     0.8426   0.9279   1.0423   1.1609   1.2837   1.3401   1.3752   1.4138
     1.6003   1.9592   1.9909   2.4094   2.4398   2.5249   2.7751   3.1250
     3.2366   3.2555   3.4189   3.5239

          k =-0.5000 1.1318 0.0000 ( 85344 PWs)   bands (ev):

  -103.7239-103.6318-103.3747-103.3160-103.1679-102.5712 -68.7499 -68.3693
   -68.2438 -68.1570 -64.2726 -64.1868 -64.1384 -64.0503 -63.9970 -63.9346
   -63.9230 -63.8797 -63.7711 -63.7202 -63.6762 -63.6623 -63.6550 -63.6186
   -63.4299 -63.1042 -62.9936 -62.9046 -35.3509 -35.1932 -35.1532 -34.9396
   -34.9087 -34.8304 -34.8084 -34.7796 -34.7151 -34.7091 -34.6835 -34.6270
   -12.9181 -12.6808 -12.4019 -12.2331 -12.1365 -11.8955 -11.8672 -11.6712
   -11.5956 -11.4542  -6.1311  -5.8904  -5.6293  -5.5693  -5.3441  -5.1047
    -4.9697  -4.7939  -4.6101  -4.5787  -4.3855  -4.3360  -4.2265  -4.1726
    -3.9749  -3.9024  -3.8351  -3.7100  -3.6016  -3.5183  -3.4401  -3.4144
    -3.2580  -3.1058  -3.0315  -2.9964  -2.9074  -2.7715  -2.6600  -2.6472
    -2.6172  -2.5114  -2.4444  -2.3699  -2.3386  -2.2653  -2.1675  -2.0790
    -2.0241  -1.9746  -1.8349  -1.7627  -1.6556  -1.6091  -1.5410  -1.4784
    -1.4186  -1.3480  -1.2813  -1.1882  -1.1159  -1.0334  -1.0025  -0.8913
    -0.8420  -0.6413  -0.4558  -0.3642  -0.3236  -0.0048   0.3935   0.5734
     0.7165   0.7945   1.0132   1.0696   1.1012   1.1607   1.3455   1.3885
     1.4697   1.6892   1.8769   2.0258   2.2733   2.4721   2.5570   2.7432
     2.7982   3.0381   3.3197   3.7262

          k =-0.5000 1.6977 0.0000 ( 85430 PWs)   bands (ev):

  -103.7236-103.6321-103.3742-103.3163-103.1679-102.5712 -68.7481 -68.3676
   -68.2420 -68.1553 -64.2726 -64.1875 -64.1379 -64.0602 -63.9879 -63.9344
   -63.9240 -63.8800 -63.7715 -63.7283 -63.6761 -63.6550 -63.6548 -63.6196
   -63.4310 -63.1041 -62.9947 -62.9045 -35.3461 -35.2069 -35.1848 -34.9342
   -34.9025 -34.8832 -34.8027 -34.7772 -34.7644 -34.7032 -34.6822 -34.6754
   -12.3870 -12.1632 -11.9866 -11.8582 -11.7793 -11.5527 -11.4740 -11.3629
   -11.3345 -11.0834  -5.8495  -5.6334  -5.5531  -5.3859  -5.3087  -5.1664
    -5.0352  -4.9522  -4.8590  -4.6413  -4.4595  -4.4221  -4.3450  -4.1913
    -4.1494  -4.1036  -4.0051  -3.9331  -3.8694  -3.7138  -3.6778  -3.5533
    -3.5122  -3.3109  -3.2791  -3.1545  -3.0606  -3.0302  -2.9931  -2.8179
    -2.6870  -2.6517  -2.6333  -2.5957  -2.4510  -2.3932  -2.3009  -2.2609
    -2.1870  -2.0495  -1.9759  -1.9251  -1.7907  -1.7287  -1.6533  -1.6037
    -1.5116  -1.4291  -1.3948  -1.3205  -1.2901  -1.1638  -1.1236  -1.0270
    -0.9777  -0.8240  -0.7111  -0.5919  -0.4074  -0.2076   0.5701   0.6340
     0.7446   0.8856   1.0681   1.1458   1.2560   1.3810   1.4228   1.5146
     1.6406   1.7515   1.8820   2.0266   2.2887   2.4946   2.7414   2.8484
     2.9731   3.1222   3.4191   3.8662

          k =-0.5000 2.2635 0.0000 ( 85544 PWs)   bands (ev):

  -103.7233-103.6323-103.3739-103.3167-103.1678-102.5712 -68.7467 -68.3661
   -68.2406 -68.1538 -64.2727 -64.1881 -64.1372 -64.0673 -63.9816 -63.9344
   -63.9251 -63.8803 -63.7714 -63.7345 -63.6761 -63.6550 -63.6491 -63.6208
   -63.4319 -63.1041 -62.9955 -62.9046 -35.3421 -35.2492 -35.1789 -34.9327
   -34.9272 -34.8930 -34.8150 -34.7976 -34.7646 -34.7265 -34.6954 -34.6719
   -11.8028 -11.6350 -11.6289 -11.4924 -11.3860 -11.2591 -11.1014 -11.0584
   -11.0413 -10.7449  -6.4137  -6.2921  -6.1650  -6.0644  -5.6651  -5.3636
    -5.2176  -5.1113  -5.0405  -4.8558  -4.7125  -4.4737  -4.3404  -4.1732
    -4.0464  -3.9474  -3.8738  -3.7700  -3.6972  -3.6694  -3.5861  -3.5564
    -3.4975  -3.4446  -3.3409  -3.3108  -3.2224  -3.0538  -2.9447  -2.8824
    -2.6594  -2.6003  -2.5824  -2.5214  -2.4628  -2.3678  -2.3416  -2.2838
    -2.2535  -2.1552  -2.0521  -2.0069  -1.9181  -1.8618  -1.7601  -1.6980
    -1.6049  -1.5471  -1.4637  -1.3804  -1.3270  -1.2817  -1.1417  -1.0547
    -1.0142  -0.9085  -0.8407  -0.7820  -0.5701  -0.3530   0.4547   0.4837
     0.7361   1.0190   1.0363   1.2459   1.2881   1.4846   1.6873   1.8206
     1.9943   2.0358   2.2036   2.2660   2.4657   2.5702   3.0131   3.1475
     3.2663   3.3454   3.3777   3.6197

          k =-0.5000-2.8294 0.0000 ( 85544 PWs)   bands (ev):

  -103.7232-103.6323-103.3737-103.3168-103.1678-102.5712 -68.7462 -68.3656
   -68.2400 -68.1533 -64.2726 -64.1883 -64.1369 -64.0698 -63.9793 -63.9343
   -63.9256 -63.8804 -63.7713 -63.7368 -63.6761 -63.6549 -63.6469 -63.6214
   -63.4322 -63.1041 -62.9958 -62.9045 -35.3406 -35.2653 -35.1765 -34.9468
   -34.9276 -34.8910 -34.8313 -34.7960 -34.7626 -34.7426 -34.6936 -34.6699
   -11.5147 -11.4903 -11.3790 -11.2825 -11.2018 -11.1900 -10.9474 -10.9160
   -10.8869 -10.6186  -6.7458  -6.6688  -6.5024  -6.4343  -5.9956  -5.5052
    -5.4112  -5.2803  -5.2022  -5.1385  -4.4075  -4.2958  -4.2380  -4.0887
    -4.0303  -3.9732  -3.7971  -3.7810  -3.7312  -3.6974  -3.5922  -3.5667
    -3.4043  -3.3832  -3.2572  -3.2003  -3.0726  -3.0305  -2.9470  -2.8431
    -2.6028  -2.5727  -2.5628  -2.4771  -2.4466  -2.3694  -2.2828  -2.2437
    -2.2059  -2.1421  -2.0849  -2.0792  -2.0420  -1.9045  -1.8389  -1.7361
    -1.6370  -1.6026  -1.4352  -1.3897  -1.2834  -1.2609  -1.2424  -1.2184
    -1.0536  -0.9435  -0.8126  -0.7519  -0.6831  -0.5454   0.2990   0.4565
     0.7693   0.9762   1.1072   1.2297   1.2725   1.4045   1.7515   1.9190
     1.9941   2.1066   2.2682   2.3822   2.6170   2.6489   3.0935   3.1854
     3.4374   3.5739   3.6896   3.7131

     the Fermi energy is     0.1612 ev

!    total energy              =   -9109.61000245 Ry
     total all-electron energy =     -9109.610002 Ry
     estimated scf accuracy    <          9.8E-09 Ry
     smearing contrib. (-TS)   =      -0.00014750 Ry
     internal energy E=F+TS    =   -9109.60985495 Ry

     The total energy is F=E-TS. E is the sum of the following terms:
     one-electron contribution =  -16658.46301466 Ry
     hartree contribution      =    8188.08484761 Ry
     xc contribution           =    -365.65211543 Ry
     ewald contribution        =    5994.17256598 Ry
     one-center paw contrib.   =   -6267.75213845 Ry

     convergence has been achieved in  24 iterations

     negative rho (up, down):  6.577E-02 0.000E+00

     Forces acting on atoms (cartesian axes, Ry/au):

     atom    1 type  1   force =     0.02331093    0.03244257   -0.00757992
     atom    2 type  1   force =     0.00463296   -0.03499947    0.01327376
     atom    3 type  1   force =    -0.03367703    0.03536378   -0.01625506
     atom    4 type  1   force =    -0.01481171   -0.03426798    0.01748598
     atom    5 type  2   force =     0.00118495    0.03317076   -0.01148830
     atom    6 type  2   force =    -0.00996256   -0.03253681    0.01079066
     atom    7 type  2   force =     0.00996914    0.03231255   -0.01277993
     atom    8 type  2   force =     0.02028530   -0.03147844    0.01166763
     atom    9 type  2   force =     0.00319603    0.02406880   -0.02064806
     atom   10 type  2   force =     0.00358301   -0.02433501    0.00298591
     atom   11 type  3   force =     0.02943614   -0.02430158   -0.04031690
     atom   12 type  3   force =     0.00825084    0.02498502    0.03999595
     atom   13 type  3   force =    -0.00020157    0.01625096   -0.02591240
     atom   14 type  3   force =    -0.01369860   -0.01578737    0.03043516
     atom   15 type  3   force =    -0.00848908   -0.02590849   -0.03539164
     atom   16 type  3   force =    -0.01150905    0.02478544    0.03711360
     atom   17 type  3   force =     0.00077146    0.01687463   -0.02670740
     atom   18 type  3   force =     0.02285265   -0.01938720    0.00878233
     atom   19 type  3   force =    -0.03562312    0.02232566   -0.00830834
     atom   20 type  3   force =     0.00049932   -0.01957782    0.03285696

     Total force =     0.177410     Total SCF correction =     0.000380


     Computing stress (Cartesian axis) and pressure


     negative rho (up, down):  6.577E-02 0.000E+00
          total   stress  (Ry/bohr**3)                   (kbar)     P=       15.42
   0.00003393  -0.00000072   0.00000502            4.99       -0.11        0.74
  -0.00000072   0.00021392  -0.00002206           -0.11       31.47       -3.25
   0.00000502  -0.00002206   0.00006670            0.74       -3.25        9.81

     Energy error            =      7.7E-02 Ry
     Gradient error          =      4.0E-02 Ry/Bohr

     number of scf cycles    =   2
     number of bfgs steps    =   1

     energy             old  =   -9109.5330866151 Ry
     energy             new  =   -9109.6100024513 Ry

     CASE: energy            _new < energy            _old

     new trust radius        =       0.1011283356 bohr
     new conv_thr            =       0.0000000040 Ry


ATOMIC_POSITIONS (angstrom)
Ta           15.4327810767        0.9754360867       12.4321670622
Ta            6.5824870547        2.6754876169       12.6198874562
Ta            2.2063285694        0.9863157928       12.4105952275
Ta           11.0553848162        2.6751849592       12.6272728835
Ni           12.8602789891        0.9879535126       11.7418965484
Ni            4.0253640888        2.6735004763       13.2937748151
Ni            4.8150823272        0.9851812975       11.7385063716
Ni           13.6525651921        2.6774645798       13.2947958994
Ni            8.8336455096        0.9586694149       12.3303194960
Ni            0.0125492611        2.7036912053       12.6739497497
Te           14.2610442742        2.6947431862       10.4616110473
Te            5.4092868832        0.9656177182       14.5713843464
Te           10.5912474851        0.9467406093       10.4679961531
Te            1.7510542450        2.7139611374       14.5762119935
Te            3.4281280293        2.6917119947       10.4694852949
Te           12.2416910779        0.9657672021       14.5685225380
Te            7.0652486087        0.9473850431       10.4670619065
Te           15.9170217615        2.7105100414       14.5350770209
Te           -0.0432606933        0.9522957029       10.8228328462
Te            8.8306338069        2.7093148766       14.2549023437



     Writing config-only to output data dir /ddn/data/physics/eamoujaes/2D-Ta2Ni3Te5/ELASTIC/C12/OUT/ta2ni3te5.save/
     NEW-OLD atomic charge density approx. for the potential

     negative rho (up, down):  6.419E-02 0.000E+00

     total cpu time spent up to now is     1072.0 secs

     Self-consistent Calculation

     iteration #  1     ecut=    60.00 Ry     beta= 0.20
     Davidson diagonalization with overlap
     ethr =  1.00E-06,  avg # of iterations = 15.1

     negative rho (up, down):  6.433E-02 0.000E+00

     total cpu time spent up to now is     1140.7 secs

     total energy              =   -9109.56462190 Ry
     estimated scf accuracy    <       0.22989317 Ry

     iteration #  2     ecut=    60.00 Ry     beta= 0.20
     Davidson diagonalization with overlap
     ethr =  1.04E-04,  avg # of iterations =  3.2

     negative rho (up, down):  6.447E-02 0.000E+00

     total cpu time spent up to now is     1157.5 secs

     total energy              =   -9109.58398750 Ry
     estimated scf accuracy    <       1.19149161 Ry

     iteration #  3     ecut=    60.00 Ry     beta= 0.20
     Davidson diagonalization with overlap
     ethr =  1.04E-04,  avg # of iterations =  2.0

     negative rho (up, down):  6.452E-02 0.000E+00

     total cpu time spent up to now is     1172.5 secs

     total energy              =   -9109.64788815 Ry
     estimated scf accuracy    <       0.11618670 Ry

     iteration #  4     ecut=    60.00 Ry     beta= 0.20
     Davidson diagonalization with overlap
     ethr =  5.28E-05,  avg # of iterations =  1.0

     negative rho (up, down):  6.460E-02 0.000E+00

     total cpu time spent up to now is     1186.2 secs

     total energy              =   -9109.65291572 Ry
     estimated scf accuracy    <       0.01989563 Ry

     iteration #  5     ecut=    60.00 Ry     beta= 0.20
     Davidson diagonalization with overlap
     ethr =  9.04E-06,  avg # of iterations =  1.5

     negative rho (up, down):  6.472E-02 0.000E+00

     total cpu time spent up to now is     1200.9 secs

     total energy              =   -9109.65223186 Ry
     estimated scf accuracy    <       0.01237584 Ry

     iteration #  6     ecut=    60.00 Ry     beta= 0.20
     Davidson diagonalization with overlap
     ethr =  5.63E-06,  avg # of iterations =  1.1

     negative rho (up, down):  6.482E-02 0.000E+00

     total cpu time spent up to now is     1214.8 secs

     total energy              =   -9109.65160619 Ry
     estimated scf accuracy    <       0.00819531 Ry

     iteration #  7     ecut=    60.00 Ry     beta= 0.20
     Davidson diagonalization with overlap
     ethr =  3.73E-06,  avg # of iterations =  1.0

     negative rho (up, down):  6.494E-02 0.000E+00

     total cpu time spent up to now is     1228.4 secs

     total energy              =   -9109.65094729 Ry
     estimated scf accuracy    <       0.00463239 Ry

     iteration #  8     ecut=    60.00 Ry     beta= 0.20
     Davidson diagonalization with overlap
     ethr =  2.11E-06,  avg # of iterations =  1.0

     negative rho (up, down):  6.504E-02 0.000E+00

     total cpu time spent up to now is     1242.2 secs

     total energy              =   -9109.65050209 Ry
     estimated scf accuracy    <       0.00402809 Ry

     iteration #  9     ecut=    60.00 Ry     beta= 0.20
     Davidson diagonalization with overlap
     ethr =  1.83E-06,  avg # of iterations =  1.0

     negative rho (up, down):  6.511E-02 0.000E+00

     total cpu time spent up to now is     1255.9 secs

     total energy              =   -9109.65038407 Ry
     estimated scf accuracy    <       0.00147065 Ry

     iteration # 10     ecut=    60.00 Ry     beta= 0.20
     Davidson diagonalization with overlap
     ethr =  6.68E-07,  avg # of iterations =  1.0

     negative rho (up, down):  6.520E-02 0.000E+00

     total cpu time spent up to now is     1269.6 secs

     total energy              =   -9109.65024520 Ry
     estimated scf accuracy    <       0.00062331 Ry

     iteration # 11     ecut=    60.00 Ry     beta= 0.20
     Davidson diagonalization with overlap
     ethr =  2.83E-07,  avg # of iterations =  1.0

     negative rho (up, down):  6.526E-02 0.000E+00

     total cpu time spent up to now is     1292.5 secs

     total energy              =   -9109.65023064 Ry
     estimated scf accuracy    <       0.00017857 Ry

     iteration # 12     ecut=    60.00 Ry     beta= 0.20
     Davidson diagonalization with overlap
     ethr =  8.12E-08,  avg # of iterations =  2.0

     negative rho (up, down):  6.527E-02 0.000E+00

     total cpu time spent up to now is     1307.9 secs

     total energy              =   -9109.65024747 Ry
     estimated scf accuracy    <       0.00004116 Ry

     iteration # 13     ecut=    60.00 Ry     beta= 0.20
     Davidson diagonalization with overlap
     ethr =  1.87E-08,  avg # of iterations =  2.0

     negative rho (up, down):  6.528E-02 0.000E+00

     total cpu time spent up to now is     1329.5 secs

     total energy              =   -9109.65025021 Ry
     estimated scf accuracy    <       0.00001731 Ry

     iteration # 14     ecut=    60.00 Ry     beta= 0.20
     Davidson diagonalization with overlap
     ethr =  7.87E-09,  avg # of iterations =  1.8

     negative rho (up, down):  6.529E-02 0.000E+00

     total cpu time spent up to now is     1353.0 secs

     total energy              =   -9109.65025147 Ry
     estimated scf accuracy    <       0.00001619 Ry

     iteration # 15     ecut=    60.00 Ry     beta= 0.20
     Davidson diagonalization with overlap
     ethr =  7.36E-09,  avg # of iterations =  1.0

     negative rho (up, down):  6.531E-02 0.000E+00

     total cpu time spent up to now is     1367.2 secs

     total energy              =   -9109.65025301 Ry
     estimated scf accuracy    <       0.00000318 Ry

     iteration # 16     ecut=    60.00 Ry     beta= 0.20
     Davidson diagonalization with overlap
     ethr =  1.44E-09,  avg # of iterations =  2.4

     negative rho (up, down):  6.530E-02 0.000E+00

     total cpu time spent up to now is     1391.0 secs

     total energy              =   -9109.65025276 Ry
     estimated scf accuracy    <       0.00000172 Ry

     iteration # 17     ecut=    60.00 Ry     beta= 0.20
     Davidson diagonalization with overlap
     ethr =  7.84E-10,  avg # of iterations =  2.0

     negative rho (up, down):  6.530E-02 0.000E+00

     total cpu time spent up to now is     1405.9 secs

     total energy              =   -9109.65025276 Ry
     estimated scf accuracy    <       0.00000245 Ry

     iteration # 18     ecut=    60.00 Ry     beta= 0.20
     Davidson diagonalization with overlap
     ethr =  7.84E-10,  avg # of iterations =  1.0

     negative rho (up, down):  6.530E-02 0.000E+00

     total cpu time spent up to now is     1419.6 secs

     total energy              =   -9109.65025287 Ry
     estimated scf accuracy    <       0.00000020 Ry

     iteration # 19     ecut=    60.00 Ry     beta= 0.20
     Davidson diagonalization with overlap
     ethr =  9.28E-11,  avg # of iterations =  2.0

     negative rho (up, down):  6.530E-02 0.000E+00

     total cpu time spent up to now is     1435.0 secs

     total energy              =   -9109.65025290 Ry
     estimated scf accuracy    <       0.00000017 Ry

     iteration # 20     ecut=    60.00 Ry     beta= 0.20
     Davidson diagonalization with overlap
     ethr =  7.79E-11,  avg # of iterations =  1.3

     negative rho (up, down):  6.530E-02 0.000E+00

     total cpu time spent up to now is     1449.6 secs

     total energy              =   -9109.65025291 Ry
     estimated scf accuracy    <       0.00000007 Ry

     iteration # 21     ecut=    60.00 Ry     beta= 0.20
     Davidson diagonalization with overlap
     ethr =  2.98E-11,  avg # of iterations =  2.0

     negative rho (up, down):  6.530E-02 0.000E+00

     total cpu time spent up to now is     1464.7 secs

     total energy              =   -9109.65025292 Ry
     estimated scf accuracy    <       0.00000004 Ry

     iteration # 22     ecut=    60.00 Ry     beta= 0.20
     Davidson diagonalization with overlap
     ethr =  1.67E-11,  avg # of iterations =  1.4

     negative rho (up, down):  6.529E-02 0.000E+00

     total cpu time spent up to now is     1479.3 secs

     total energy              =   -9109.65025292 Ry
     estimated scf accuracy    <       0.00000002 Ry

     iteration # 23     ecut=    60.00 Ry     beta= 0.20
     Davidson diagonalization with overlap
     ethr =  8.32E-12,  avg # of iterations =  1.2

     negative rho (up, down):  6.529E-02 0.000E+00

     total cpu time spent up to now is     1493.8 secs

     total energy              =   -9109.65025292 Ry
     estimated scf accuracy    <       0.00000001 Ry

     iteration # 24     ecut=    60.00 Ry     beta= 0.20
     Davidson diagonalization with overlap
     ethr =  4.56E-12,  avg # of iterations =  1.1

     negative rho (up, down):  6.529E-02 0.000E+00

     total cpu time spent up to now is     1507.5 secs

     End of self-consistent calculation

          k = 0.0000 0.0000 0.0000 ( 85375 PWs)   bands (ev):

  -103.6502-103.5528-103.3310-103.2624-103.1457-102.5985 -68.7654 -68.4046
   -68.2828 -68.2197 -64.1940 -64.1015 -64.0562 -63.9561 -63.9306 -63.8862
   -63.8534 -63.8203 -63.7136 -63.6650 -63.6507 -63.6416 -63.6139 -63.5777
   -63.3958 -63.1263 -63.0132 -62.9405 -35.3581 -35.2039 -35.0907 -34.9621
   -34.9343 -34.8392 -34.8044 -34.7815 -34.7592 -34.7358 -34.6731 -34.6006
   -13.2825 -13.0253 -12.7414 -12.5255 -12.4039 -12.1831 -12.1332 -11.9568
   -11.8142 -11.7904  -6.5022  -6.2634  -6.0295  -5.8628  -5.7942  -5.5567
    -5.3513  -4.9549  -4.7689  -4.4253  -4.2549  -4.0899  -4.0617  -3.9651
    -3.8672  -3.5824  -3.5486  -3.4166  -3.3378  -3.2388  -3.1695  -2.9007
    -2.8385  -2.7577  -2.7402  -2.6161  -2.5471  -2.5224  -2.4043  -2.3313
    -2.2139  -2.2022  -2.1436  -2.0980  -1.9865  -1.9650  -1.9214  -1.8332
    -1.7214  -1.6104  -1.5583  -1.4846  -1.4598  -1.4150  -1.3699  -1.3140
    -1.1833  -1.1127  -0.9872  -0.7727  -0.7473  -0.6180  -0.6153  -0.5531
    -0.2795  -0.2209  -0.1822  -0.1430  -0.0011   0.0914   0.2592   0.4948
     0.9279   1.0472   1.1902   1.2659   1.3092   1.3626   1.5428   1.7042
     1.8995   1.9630   2.2033   2.3662   2.5282   2.8843   2.9746   3.0881
     3.2533   3.4499   3.5733   3.6351

          k = 0.0000 0.5659 0.0000 ( 85323 PWs)   bands (ev):

  -103.6501-103.5528-103.3309-103.2624-103.1457-102.5985 -68.7649 -68.4041
   -68.2822 -68.2191 -64.1939 -64.1016 -64.0561 -63.9603 -63.9263 -63.8862
   -63.8537 -63.8203 -63.7138 -63.6668 -63.6507 -63.6416 -63.6120 -63.5778
   -63.3959 -63.1263 -63.0133 -62.9404 -35.3566 -35.2016 -35.1071 -34.9604
   -34.9320 -34.8374 -34.8022 -34.7983 -34.7571 -34.7340 -34.6899 -34.6173
   -13.1612 -12.9054 -12.6314 -12.4267 -12.3200 -12.0908 -12.0462 -11.8789
   -11.7358 -11.7072  -6.3825  -6.1447  -5.8955  -5.7538  -5.6567  -5.4177
    -5.2277  -4.8540  -4.6730  -4.3851  -4.2294  -4.1078  -4.0626  -3.9877
    -3.8924  -3.6694  -3.5418  -3.4881  -3.3380  -3.2578  -3.1412  -2.9659
    -2.9228  -2.8136  -2.7964  -2.7131  -2.6917  -2.6103  -2.5038  -2.3372
    -2.2612  -2.2558  -2.1749  -2.1462  -2.1045  -2.0241  -1.9627  -1.8514
[...]
   -63.4194 -63.4184 -63.1446 -63.1443 -35.0528 -35.0508 -35.0477 -35.0437
   -35.0151 -35.0147 -35.0122 -35.0092 -34.9384 -34.9382 -34.9349 -34.9319
   -12.5524 -12.3436 -12.3058 -11.9669 -11.9336 -11.8481 -11.7388 -11.7216
   -11.6981 -11.5435  -5.7681  -5.6544  -5.3832  -5.2366  -5.1386  -5.0684
    -5.0340  -4.4312  -4.3309  -4.1428  -4.0315  -4.0187  -3.8762  -3.8695
    -3.8232  -3.6783  -3.6567  -3.4203  -3.3030  -3.2902  -3.2036  -3.1545
    -3.0575  -3.0002  -2.8474  -2.8243  -2.6196  -2.5787  -2.4826  -2.4535
    -2.4039  -2.3799  -2.3726  -2.3366  -2.0916  -2.0428  -1.9091  -1.8773
    -1.8540  -1.8519  -1.7052  -1.6182  -1.5265  -1.4737  -1.4277  -1.3885
    -1.2049  -1.1618  -1.1493  -1.0686  -1.0419  -0.9791  -0.9583  -0.9134
    -0.8788  -0.6717  -0.4969  -0.4186  -0.2618  -0.2151   0.4587   0.6316
     0.6341   0.7795   0.7847   1.0434   1.0730   1.0944   1.1250   1.3283
     1.6402   1.7305   1.7604   1.9816   2.0478   2.2720   2.4041   2.6531
     2.7738   2.9320   3.8215   3.8748

          k = 0.0000 1.6977 0.0000 ( 85466 PWs)   bands (ev):

  -103.1671-103.1647-103.1550-103.1494-102.9234-102.9232 -68.5405 -68.5401
   -68.5369 -68.5334 -63.7220 -63.7194 -63.7112 -63.7056 -63.5624 -63.5603
   -63.5379 -63.5346 -63.4729 -63.4688 -63.4631 -63.4626 -63.4447 -63.4388
   -63.4193 -63.4183 -63.1457 -63.1454 -35.0475 -35.0460 -35.0426 -35.0388
   -35.0079 -35.0076 -35.0050 -35.0019 -34.9902 -34.9899 -34.9866 -34.9836
   -12.0274 -11.8331 -11.8286 -11.6131 -11.5672 -11.4854 -11.4244 -11.3598
   -11.3259 -11.2659  -5.4952  -5.3410  -5.1522  -5.0642  -4.9120  -4.8487
    -4.7762  -4.6230  -4.5865  -4.4337  -4.2734  -4.2605  -4.2142  -4.1892
    -3.9963  -3.9222  -3.9030  -3.7827  -3.5683  -3.5423  -3.4732  -3.4264
    -3.4101  -3.0152  -3.0090  -2.9754  -2.9478  -2.9073  -2.8556  -2.7691
    -2.5929  -2.5450  -2.5285  -2.4677  -2.1898  -2.1842  -2.0438  -2.0367
    -1.9175  -1.8939  -1.7814  -1.7545  -1.5794  -1.5151  -1.4715  -1.4537
    -1.4232  -1.2648  -1.2223  -1.2166  -1.1110  -1.0695  -1.0335  -1.0059
    -0.8465  -0.8150  -0.6872  -0.6429  -0.4751  -0.3553   0.6366   0.7214
     0.8123   0.9129   0.9390   1.0992   1.2834   1.3415   1.3850   1.4503
     1.6862   1.7049   1.7406   1.9275   2.1374   2.1606   2.5343   2.7238
     2.9784   3.0127   3.8205   3.8815

          k = 0.0000 2.2635 0.0000 ( 85560 PWs)   bands (ev):

  -103.1662-103.1640-103.1559-103.1500-102.9233-102.9232 -68.5391 -68.5388
   -68.5356 -68.5320 -63.7215 -63.7190 -63.7118 -63.7061 -63.5599 -63.5580
   -63.5464 -63.5429 -63.4645 -63.4631 -63.4626 -63.4606 -63.4487 -63.4426
   -63.4193 -63.4183 -63.1465 -63.1463 -35.0432 -35.0423 -35.0386 -35.0350
   -35.0318 -35.0315 -35.0282 -35.0252 -35.0018 -35.0017 -34.9990 -34.9960
   -11.4385 -11.3399 -11.2931 -11.2782 -11.2164 -11.2142 -11.0899 -11.0060
   -11.0017 -10.9531  -5.9433  -5.8958  -5.8918  -5.8431  -5.3927  -5.3624
    -4.9802  -4.9424  -4.8657  -4.7473  -4.3633  -4.2868  -4.0266  -3.8459
    -3.7908  -3.7673  -3.7395  -3.6875  -3.6566  -3.5670  -3.4517  -3.3982
    -3.2572  -3.1979  -3.1595  -3.1164  -3.1055  -2.8998  -2.8312  -2.8021
    -2.6147  -2.5572  -2.5112  -2.3186  -2.1819  -2.1668  -2.1376  -2.0861
    -2.0144  -2.0132  -1.9125  -1.8811  -1.6500  -1.5543  -1.5264  -1.3683
    -1.3313  -1.3105  -1.2321  -1.2281  -1.2175  -1.2103  -1.1619  -0.9944
    -0.8737  -0.8235  -0.8221  -0.7906  -0.5205  -0.5175   0.5330   0.7260
     0.7465   0.9260   0.9610   1.1277   1.3067   1.3836   1.5844   1.8274
     1.8514   1.9661   2.1040   2.1112   2.3109   2.3422   3.0897   3.1251
     3.2674   3.4142   3.4511   3.5280

          k = 0.0000-2.8294 0.0000 ( 85560 PWs)   bands (ev):

  -103.1658-103.1637-103.1563-103.1503-102.9233-102.9232 -68.5386 -68.5382
   -68.5350 -68.5315 -63.7212 -63.7188 -63.7120 -63.7062 -63.5572 -63.5558
   -63.5512 -63.5472 -63.4631 -63.4626 -63.4597 -63.4566 -63.4520 -63.4452
   -63.4192 -63.4182 -63.1468 -63.1466 -35.0477 -35.0474 -35.0441 -35.0412
   -35.0412 -35.0409 -35.0368 -35.0334 -34.9996 -34.9995 -34.9968 -34.9937
   -11.1436 -11.1423 -11.0597 -11.0591 -11.0383 -11.0372 -10.9766 -10.9757
   -10.8181 -10.8170  -6.2820  -6.2809  -6.2549  -6.2542  -5.7184  -5.7173
    -5.1484  -5.1475  -5.0057  -5.0051  -3.9757  -3.9747  -3.9697  -3.9686
    -3.7802  -3.7786  -3.5724  -3.5723  -3.4538  -3.4520  -3.4359  -3.4341
    -3.2842  -3.2836  -3.0903  -3.0893  -2.9151  -2.9142  -2.8569  -2.8554
    -2.5382  -2.5380  -2.3537  -2.3523  -2.1390  -2.1365  -2.1164  -2.1156
    -2.0538  -2.0529  -1.9843  -1.9835  -1.5905  -1.5883  -1.4625  -1.4617
    -1.3269  -1.3260  -1.2716  -1.2706  -1.1887  -1.1875  -1.0803  -1.0788
    -0.8802  -0.8799  -0.8667  -0.8660  -0.6439  -0.6436   0.5890   0.5907
     0.8214   0.8233   1.0066   1.0074   1.3313   1.3332   1.5822   1.5840
     2.0460   2.0474   2.1357   2.1385   2.4623   2.4647   3.2963   3.3004
     3.5839   3.5842   3.6501   3.6512

          k =-0.5000 0.0000 0.0000 ( 85284 PWs)   bands (ev):

  -103.1691-103.1663-103.1532-103.1479-102.9234-102.9233 -68.5441 -68.5437
   -68.5405 -68.5369 -63.7233 -63.7204 -63.7100 -63.7047 -63.5638 -63.5618
   -63.5105 -63.5084 -63.4999 -63.4946 -63.4633 -63.4628 -63.4396 -63.4338
   -63.4194 -63.4185 -63.1435 -63.1432 -35.0585 -35.0562 -35.0532 -35.0490
   -35.0233 -35.0228 -35.0203 -35.0172 -34.8799 -34.8797 -34.8764 -34.8734
   -12.9559 -12.9542 -12.5298 -12.5284 -12.2062 -12.2051 -12.0908 -12.0900
   -11.8811 -11.8786  -6.1494  -6.1461  -5.8682  -5.8621  -5.5359  -5.5335
    -5.1709  -5.1670  -4.5281  -4.5248  -3.9365  -3.9360  -3.6647  -3.6609
    -3.6024  -3.6004  -3.4951  -3.4931  -2.9551  -2.9516  -2.7559  -2.7513
    -2.5969  -2.5922  -2.3562  -2.3549  -2.3205  -2.3194  -2.2363  -2.2310
    -2.1832  -2.1787  -2.0408  -2.0395  -1.8042  -1.8023  -1.7894  -1.7878
    -1.6271  -1.6146  -1.3691  -1.3672  -1.2883  -1.2873  -1.2033  -1.1954
    -1.1409  -1.1384  -0.9593  -0.9571  -0.7019  -0.6952  -0.5572  -0.5490
    -0.2747  -0.2738  -0.1662  -0.1625   0.1401   0.1412   0.4585   0.4710
     0.7993   0.8030   0.9655   0.9682   1.2165   1.2174   1.6726   1.6759
     2.0258   2.0351   2.0813   2.0865   2.8258   2.8277   3.3103   3.3118
     3.3690   3.3760   3.6105   3.6113

          k =-0.5000 0.5659 0.0000 ( 85310 PWs)   bands (ev):

  -103.1688-103.1661-103.1534-103.1481-102.9234-102.9233 -68.5436 -68.5432
   -68.5400 -68.5364 -63.7232 -63.7203 -63.7102 -63.7048 -63.5637 -63.5616
   -63.5176 -63.5147 -63.4929 -63.4883 -63.4633 -63.4628 -63.4402 -63.4343
   -63.4195 -63.4185 -63.1437 -63.1435 -35.0569 -35.0547 -35.0517 -35.0476
   -35.0210 -35.0205 -35.0181 -35.0150 -34.8962 -34.8959 -34.8926 -34.8896
   -12.8366 -12.8350 -12.4190 -12.4177 -12.1251 -12.1240 -11.9982 -11.9975
   -11.8070 -11.8046  -6.0303  -6.0272  -5.7315  -5.7253  -5.4124  -5.4097
    -5.0514  -5.0478  -4.4453  -4.4423  -3.9353  -3.9335  -3.6766  -3.6735
    -3.5959  -3.5942  -3.4719  -3.4702  -3.1037  -3.1024  -2.8026  -2.7985
    -2.6770  -2.6749  -2.4693  -2.4621  -2.4140  -2.4125  -2.3246  -2.3239
    -2.2575  -2.2548  -1.9516  -1.9503  -1.9098  -1.9092  -1.7787  -1.7769
    -1.7512  -1.7431  -1.5362  -1.5328  -1.2995  -1.2968  -1.2710  -1.2630
    -1.0859  -1.0858  -1.0343  -1.0313  -0.8205  -0.8154  -0.6458  -0.6395
    -0.5078  -0.5058  -0.2798  -0.2794   0.1375   0.1392   0.2765   0.2851
     0.7571   0.7635   1.0245   1.0279   1.1094   1.1120   1.1984   1.2035
     1.8268   1.8291   2.1356   2.1411   2.3195   2.3225   3.1565   3.1574
     3.2691   3.2694   3.5738   3.6097

          k =-0.5000 1.1318 0.0000 ( 85344 PWs)   bands (ev):

  -103.1681-103.1655-103.1541-103.1487-102.9234-102.9233 -68.5422 -68.5418
   -68.5386 -68.5351 -63.7226 -63.7198 -63.7106 -63.7052 -63.5633 -63.5613
   -63.5280 -63.5249 -63.4827 -63.4784 -63.4632 -63.4627 -63.4418 -63.4359
   -63.4194 -63.4184 -63.1445 -63.1443 -35.0527 -35.0508 -35.0476 -35.0437
   -35.0151 -35.0147 -35.0122 -35.0092 -34.9384 -34.9382 -34.9349 -34.9319
   -12.4929 -12.4914 -12.1038 -12.1029 -11.8989 -11.8975 -11.7354 -11.7342
   -11.5988 -11.5965  -5.7143  -5.7117  -5.3711  -5.3652  -5.0681  -5.0648
    -4.7527  -4.7503  -4.2718  -4.2702  -4.0406  -4.0375  -3.7656  -3.7646
    -3.6599  -3.6581  -3.5331  -3.5297  -3.4607  -3.4583  -3.1879  -3.1873
    -2.9807  -2.9728  -2.8360  -2.8341  -2.6441  -2.6420  -2.4465  -2.4440
    -2.3765  -2.3760  -2.3414  -2.3407  -2.0746  -2.0735  -1.8957  -1.8941
    -1.8570  -1.8524  -1.7000  -1.6985  -1.4178  -1.4164  -1.3750  -1.3711
    -1.2754  -1.2739  -1.1371  -1.1331  -1.0345  -1.0339  -0.8905  -0.8851
    -0.7636  -0.7572  -0.4682  -0.4666  -0.2289  -0.2278   0.5427   0.5494
     0.8076   0.8077   0.8888   0.8918   1.0344   1.0364   1.1929   1.1959
     1.5532   1.5571   1.9412   1.9432   2.1444   2.1465   2.6261   2.6313
     2.8013   2.8040   3.9315   3.9322

          k =-0.5000 1.6977 0.0000 ( 85430 PWs)   bands (ev):

  -103.1671-103.1647-103.1550-103.1494-102.9234-102.9232 -68.5405 -68.5401
   -68.5369 -68.5334 -63.7220 -63.7193 -63.7112 -63.7056 -63.5624 -63.5603
   -63.5378 -63.5346 -63.4729 -63.4687 -63.4631 -63.4626 -63.4446 -63.4387
   -63.4193 -63.4183 -63.1457 -63.1454 -35.0475 -35.0461 -35.0426 -35.0388
   -35.0079 -35.0076 -35.0050 -35.0019 -34.9902 -34.9899 -34.9866 -34.9836
   -11.9753 -11.9738 -11.6473 -11.6470 -11.5802 -11.5785 -11.3725 -11.3702
   -11.2939 -11.2920  -5.4262  -5.4248  -5.0620  -5.0605  -4.9766  -4.9750
    -4.6884  -4.6876  -4.4712  -4.4704  -4.2847  -4.2837  -4.1312  -4.1269
    -3.9628  -3.9622  -3.8660  -3.8640  -3.6575  -3.6557  -3.4213  -3.4194
    -3.1257  -3.1244  -3.0483  -3.0476  -2.9449  -2.9422  -2.8275  -2.8227
    -2.5519  -2.5508  -2.4673  -2.4664  -2.1901  -2.1879  -2.0363  -2.0337
    -1.8836  -1.8812  -1.8218  -1.8202  -1.5343  -1.5321  -1.4800  -1.4778
    -1.3161  -1.3139  -1.2291  -1.2254  -1.0701  -1.0698  -1.0274  -1.0249
    -0.8411  -0.8382  -0.6870  -0.6869  -0.4134  -0.4108   0.7660   0.7691
     0.9311   0.9378   0.9928   0.9933   1.1964   1.1978   1.3771   1.3790
     1.6472   1.6495   1.8706   1.8722   2.1410   2.1437   2.7323   2.7387
     2.9179   2.9193   3.9562   3.9579

          k =-0.5000 2.2635 0.0000 ( 85544 PWs)   bands (ev):

  -103.1662-103.1640-103.1559-103.1500-102.9233-102.9232 -68.5391 -68.5388
   -68.5356 -68.5320 -63.7214 -63.7190 -63.7118 -63.7060 -63.5599 -63.5580
   -63.5464 -63.5430 -63.4645 -63.4631 -63.4626 -63.4607 -63.4487 -63.4426
   -63.4193 -63.4183 -63.1465 -63.1463 -35.0432 -35.0423 -35.0386 -35.0350
   -35.0318 -35.0315 -35.0282 -35.0252 -35.0018 -35.0017 -34.9990 -34.9960
   -11.4049 -11.4035 -11.2719 -11.2707 -11.2106 -11.2088 -11.0696 -11.0671
   -10.9621 -10.9617  -5.9543  -5.9536  -5.8220  -5.8214  -5.3942  -5.3933
    -4.9722  -4.9700  -4.7946  -4.7940  -4.3267  -4.3246  -3.9104  -3.9085
    -3.8299  -3.8272  -3.7448  -3.7439  -3.5836  -3.5833  -3.3986  -3.3951
    -3.1924  -3.1860  -3.1500  -3.1484  -3.0309  -3.0266  -2.8541  -2.8505
    -2.5257  -2.5244  -2.4352  -2.4343  -2.1682  -2.1648  -2.1098  -2.1051
    -2.0312  -2.0307  -1.9228  -1.9201  -1.5860  -1.5838  -1.4618  -1.4600
    -1.2936  -1.2914  -1.2619  -1.2600  -1.2160  -1.2148  -1.0396  -1.0373
    -0.9030  -0.9023  -0.7692  -0.7679  -0.5332  -0.5323   0.6287   0.6306
     0.9385   0.9438   0.9882   0.9894   1.3010   1.3022   1.6705   1.6719
     1.9595   1.9618   2.0762   2.0802   2.3158   2.3179   3.1610   3.1631
     3.2680   3.2738   3.5846   3.5864

          k =-0.5000-2.8294 0.0000 ( 85544 PWs)   bands (ev):

  -103.1658-103.1637-103.1563-103.1503-102.9233-102.9232 -68.5386 -68.5382
   -68.5350 -68.5315 -63.7212 -63.7188 -63.7119 -63.7061 -63.5572 -63.5558
   -63.5511 -63.5472 -63.4631 -63.4626 -63.4597 -63.4566 -63.4520 -63.4452
   -63.4192 -63.4182 -63.1468 -63.1466 -35.0477 -35.0474 -35.0441 -35.0412
   -35.0412 -35.0409 -35.0368 -35.0334 -34.9996 -34.9995 -34.9968 -34.9937
   -11.1435 -11.1422 -11.0641 -11.0637 -11.0299 -11.0290 -10.9813 -10.9804
   -10.8173 -10.8163  -6.3240  -6.3235  -6.2050  -6.2047  -5.7245  -5.7234
    -5.1510  -5.1501  -5.0062  -5.0056  -3.9945  -3.9943  -3.9440  -3.9438
    -3.7712  -3.7696  -3.5552  -3.5547  -3.5052  -3.5048  -3.4298  -3.4295
    -3.3207  -3.3192  -3.0151  -3.0150  -2.9154  -2.9150  -2.8837  -2.8823
    -2.4349  -2.4339  -2.4335  -2.4328  -2.1382  -2.1360  -2.1153  -2.1149
    -2.0711  -2.0702  -1.9904  -1.9899  -1.5886  -1.5871  -1.4620  -1.4613
    -1.3239  -1.3237  -1.2829  -1.2807  -1.1758  -1.1751  -1.0971  -1.0964
    -0.9014  -0.9011  -0.8311  -0.8303  -0.6485  -0.6481   0.5880   0.5897
     0.8754   0.8764   1.0495   1.0498   1.1363   1.1381   1.8301   1.8309
     1.8569   1.8590   2.1958   2.1981   2.4326   2.4347   3.3710   3.3747
     3.5328   3.5330   3.6766   3.6771

     the Fermi energy is     0.1768 ev

!    total energy              =   -9109.77153475 Ry
     total all-electron energy =     -9109.771535 Ry
     estimated scf accuracy    <          5.2E-11 Ry
     smearing contrib. (-TS)   =      -0.00021375 Ry
     internal energy E=F+TS    =   -9109.77132100 Ry

     The total energy is F=E-TS. E is the sum of the following terms:
     one-electron contribution =  -16332.18526126 Ry
     hartree contribution      =    8025.46835524 Ry
     xc contribution           =    -364.86408063 Ry
     ewald contribution        =    5829.45832315 Ry
     one-center paw contrib.   =   -6267.64865750 Ry

     convergence has been achieved in  18 iterations

     negative rho (up, down):  6.466E-02 0.000E+00

     Forces acting on atoms (cartesian axes, Ry/au):

     atom    1 type  1   force =     0.00017695   -0.00034184   -0.00020131
     atom    2 type  1   force =     0.00044666    0.00021890    0.00058863
     atom    3 type  1   force =    -0.00038137   -0.00000818   -0.00032132
     atom    4 type  1   force =    -0.00005165   -0.00001298    0.00051795
     atom    5 type  2   force =     0.00040946   -0.00000426    0.00032555
     atom    6 type  2   force =     0.00067384    0.00005963   -0.00013173
     atom    7 type  2   force =     0.00033456   -0.00013325   -0.00032856
     atom    8 type  2   force =     0.00001790    0.00010464    0.00018399
     atom    9 type  2   force =     0.00030266   -0.00018990    0.00043910
     atom   10 type  2   force =    -0.00040570    0.00001990   -0.00050967
     atom   11 type  3   force =    -0.00073249    0.00018264   -0.00032693
     atom   12 type  3   force =    -0.00032042   -0.00024621    0.00002400
     atom   13 type  3   force =     0.00060813    0.00002706   -0.00036733
     atom   14 type  3   force =    -0.00050496    0.00000682    0.00020693
     atom   15 type  3   force =    -0.00003840    0.00012677   -0.00035401
     atom   16 type  3   force =    -0.00046123   -0.00012929    0.00007943
     atom   17 type  3   force =     0.00039273    0.00000547   -0.00017353
     atom   18 type  3   force =    -0.00031316    0.00014627    0.00025658
     atom   19 type  3   force =     0.00002479   -0.00004322    0.00010578
     atom   20 type  3   force =    -0.00017831    0.00021106   -0.00001355

     Total force =     0.002358     Total SCF correction =     0.000036


     Computing stress (Cartesian axis) and pressure


     negative rho (up, down):  6.466E-02 0.000E+00
          total   stress  (Ry/bohr**3)                   (kbar)     P=       -4.86
  -0.00015619   0.00000000  -0.00000068          -22.98        0.00       -0.10
   0.00000000   0.00009548  -0.00000001            0.00       14.05       -0.00
  -0.00000068  -0.00000001  -0.00003833           -0.10       -0.00       -5.64

     Energy error            =      1.3E-05 Ry
     Gradient error          =      7.3E-04 Ry/Bohr

     bfgs converged in  38 scf cycles and  37 bfgs steps
     (criteria: energy <  1.0E-04 Ry, force <  1.0E-03 Ry/Bohr)

     End of BFGS Geometry Optimization

     Final energy             =   -9109.7715347487 Ry

     File /ddn/data/physics/eamoujaes/2D-Ta2Ni3Te5/ELASTIC/C12/OUT/ta2ni3te5.bfgs deleted, as requested
Begin final coordinates

ATOMIC_POSITIONS (angstrom)
Ta           15.9831053086        0.9870187189       12.2945471195
Ta            6.4307448683        2.6728886296       12.7391548662
Ta            1.8228630824        0.9859879142       12.3149754656
Ta           11.3688661411        2.6737788466       12.7230323099
Ni           13.2237547365        0.9866045224       11.7209893864
Ni            3.6789684154        2.6731313617       13.3151671604
Ni            4.5693417682        0.9868245035       11.7497575519
Ni           14.1238658662        2.6730750187       13.2842891860
Ni            8.8923134662        0.9881425789       12.2887211801
Ni           -0.6353327726        2.6721204228       12.7473024276
Te           14.7119520744        2.6728530610       10.3944150653
Te            5.1633113580        0.9871202326       14.6436122759
Te           10.8402254578        0.9866574379       10.5679835574
Te            1.3068045740        2.6728747706       14.4742830320
Te            3.0963147320        2.6728374916       10.4147906991
Te           12.6509340302        0.9869697917       14.6194484559
Te            6.9368003693        0.9861038283       10.5776423556
Te           16.4975337180        2.6727866370       14.4536836274
Te           -0.6391472936        0.9855192251       10.8420087767
Te            8.9053424629        2.6736374610       14.1924465010
End final coordinates



     Writing all to output data dir /ddn/data/physics/eamoujaes/2D-Ta2Ni3Te5/ELASTIC/C12/OUT/ta2ni3te5.save/
 
     init_run     :     81.20s CPU     36.01s WALL (       1 calls)
     electrons    :  41433.75s CPU  15248.17s WALL (      38 calls)
     update_pot   :   2015.95s CPU    681.89s WALL (      37 calls)
     forces       :   1813.50s CPU    618.51s WALL (      38 calls)
     stress       :   4343.53s CPU   1487.56s WALL (      38 calls)

     Called by init_run:
     wfcinit      :     25.07s CPU      8.99s WALL (       1 calls)
     potinit      :     18.31s CPU      6.28s WALL (       1 calls)
     hinit0       :     35.08s CPU     19.37s WALL (       1 calls)

     Called by electrons:
     c_bands      :  29701.79s CPU  10486.32s WALL (     935 calls)
     sum_band     :   6855.85s CPU   2485.01s WALL (     935 calls)
     v_of_rho     :   2215.90s CPU    846.12s WALL (     968 calls)
     newd         :   1316.04s CPU    561.48s WALL (     968 calls)
     PAW_pot      :    603.36s CPU    214.84s WALL (    1005 calls)
     mix_rho      :    541.86s CPU    208.34s WALL (     935 calls)

     Called by c_bands:
     init_us_2    :    307.21s CPU    103.88s WALL (    3968 calls)
     init_us_2:cp :    307.07s CPU    103.85s WALL (    3968 calls)
     cegterg      :  27644.53s CPU   9500.88s WALL (    1870 calls)

     Called by *egterg:
     cdiaghg      :    353.37s CPU    121.92s WALL (    5974 calls)
     h_psi        :  18264.70s CPU   6285.31s WALL (    6060 calls)
     s_psi        :   1785.46s CPU    595.61s WALL (    6060 calls)
     g_psi        :     82.17s CPU     27.47s WALL (    4188 calls)

     Called by h_psi:
     h_psi:calbec :   1850.90s CPU    619.03s WALL (    6060 calls)
     vloc_psi     :  14495.86s CPU   5002.78s WALL (    6060 calls)
     add_vuspsi   :   1791.28s CPU    597.77s WALL (    6060 calls)

     General routines
     calbec       :   2852.56s CPU    953.91s WALL (    8384 calls)
     fft          :   1618.16s CPU    610.66s WALL (   13500 calls)
     ffts         :     49.26s CPU     17.76s WALL (    1903 calls)
     fftw         :  13378.30s CPU   4672.11s WALL ( 1353748 calls)
     interpolate  :    183.35s CPU     72.25s WALL (     968 calls)
 
     Parallel routines
 
     PWSCF        :     13h51m CPU      5h 5m WALL

 
   This run was terminated on:   8: 7:16   1Aug2024            

=------------------------------------------------------------------------------=
   JOB DONE.
=------------------------------------------------------------------------------=
