
     Program PWSCF v.7.3 starts on 27Jul2024 at 21:36:42 

     This program is part of the open-source Quantum ESPRESSO suite
     for quantum simulation of materials; please cite
         "P. Giannozzi et al., J. Phys.:Condens. Matter 21 395502 (2009);
         "P. Giannozzi et al., J. Phys.:Condens. Matter 29 465901 (2017);
         "P. Giannozzi et al., J. Chem. Phys. 152 154105 (2020);
          URL http://www.quantum-espresso.org", 
     in publications or presentations arising from this work. More details at
     http://www.quantum-espresso.org/quote

     Parallel version (MPI & OpenMP), running on      32 processor cores
     Number of MPI processes:                 1
     Threads/MPI process:                    32

     MPI processes distributed on     1 nodes
     209238 MiB available memory on the printing compute node when the environment starts
 
     Waiting for input...
     Reading input from standard input
Warning: card &CELL ignored
Warning: card CELL_DYNAMICS='BFGS' ignored
Warning: card PRESS=0.0 ignored
Warning: card CELL_DOFREE='2DXY' ignored
Warning: card / ignored

     Current dimensions of program PWSCF are:
     Max number of different atomic species (ntypx) = 10
     Max number of k-points (npk) =  40000
     Max angular momentum in pseudopotentials (lmaxx) =  4
read_pp_mesh; mismatch in mesh size, discarding the one in header
read_pp_mesh; mismatch in mesh size, discarding the one in header
read_pp_mesh; mismatch in mesh size, discarding the one in header
 
     Subspace diagonalization in iterative solution of the eigenvalue problem:
     a serial algorithm will be used

 
     G-vector sticks info
     --------------------
     sticks:   dense  smooth     PW     G-vecs:    dense   smooth      PW
     Sum        8117    4051   1155              1782013   630123   95199
 
     Using Slab Decomposition
 


     bravais-lattice index     =            0
     lattice parameter (alat)  =      33.3357  a.u.
     unit-cell volume          =   10034.4994 (a.u.)^3
     number of atoms/cell      =           20
     number of atomic types    =            3
     number of electrons       =       220.00
     number of Kohn-Sham states=          132
     kinetic-energy cutoff     =      60.0000  Ry
     charge density cutoff     =     480.0000  Ry
     scf convergence threshold =      1.0E-08
     mixing beta               =       0.2000
     number of iterations used =            8  plain     mixing
     energy convergence thresh.=      1.0E-04
     force convergence thresh. =      1.0E-03
     Exchange-correlation= SLA PW PBX PBC
                           (   1   4   3   4   0   0   0)
     nstep                     =         2000


     GPU acceleration is ACTIVE.  1 visible GPUs per MPI rank
     GPU-aware MPI enabled


     celldm(1)=  33.335714  celldm(2)=   0.000000  celldm(3)=   0.000000
     celldm(4)=   0.000000  celldm(5)=   0.000000  celldm(6)=   0.000000

     crystal axes: (cart. coord. in units of alat)
               a(1) = (   1.000000   0.000000   0.000000 )  
               a(2) = (   0.000000   0.190862   0.000000 )  
               a(3) = (   0.000000   0.000000   1.419211 )  

     reciprocal axes: (cart. coord. in units 2 pi/alat)
               b(1) = (  1.000000  0.000000  0.000000 )  
               b(2) = (  0.000000  5.239389  0.000000 )  
               b(3) = (  0.000000  0.000000  0.704617 )  


     PseudoPot. # 1 for Ta read from file:
     /ddn/data/physics/eamoujaes/PSEUDO-CREATED/Ta.upf
     MD5 check sum: d865b2c2c09566b116f2b8decb2c153d
     Pseudo is Projector augmented-wave + core cor, Zval = 13.0
     Generated using ATOMPAW code
     Shape of augmentation charge: SINC**2
     Using radial grid of 2342 points,  6 beta functions with: 
                l(1) =   0
                l(2) =   0
                l(3) =   1
                l(4) =   1
                l(5) =   2
                l(6) =   2
     Q(r) pseudized with 0 coefficients 


     PseudoPot. # 2 for Ni read from file:
     /ddn/data/physics/eamoujaes/PSEUDO-CREATED/Ni.upf
     MD5 check sum: 85a2a5d9d38f4289a1cc30d5adb66a03
     Pseudo is Projector augmented-wave + core cor, Zval = 18.0
     Generated using ATOMPAW code
     Shape of augmentation charge: SINC**2
     Using radial grid of 2342 points,  6 beta functions with: 
                l(1) =   0
                l(2) =   0
                l(3) =   1
                l(4) =   1
                l(5) =   2
                l(6) =   2
     Q(r) pseudized with 0 coefficients 


     PseudoPot. # 3 for Te read from file:
     /ddn/data/physics/eamoujaes/PSEUDO-CREATED/Te.upf
     MD5 check sum: 8d958f193a7511a138982c2e72838810
     Pseudo is Projector augmented-wave + core cor, Zval =  6.0
     Generated using ATOMPAW code
     Shape of augmentation charge: SINC**2
     Using radial grid of 2342 points,  4 beta functions with: 
                l(1) =   0
                l(2) =   0
                l(3) =   1
                l(4) =   1
     Q(r) pseudized with 0 coefficients 


     atomic species   valence    mass     pseudopotential
     Ta               13.00   180.94790     Ta( 1.00)
     Ni               18.00    58.69340     Ni( 1.00)
     Te                6.00   127.60000     Te( 1.00)

     No symmetry found



   Cartesian axes

     site n.     atom                  positions (alat units)
         1        Ta     tau(   1) = (   0.8725286   0.0518649   0.7054131  )
         2        Ta     tau(   2) = (   0.3725263   0.1555948   0.7138118  )
         3        Ta     tau(   3) = (   0.1284065   0.0518649   0.7054032  )
         4        Ta     tau(   4) = (   0.6284092   0.1555948   0.7138208  )
         5        Ni     tau(   5) = (   0.7292542   0.0518649   0.6667436  )
         6        Ni     tau(   6) = (   0.2292509   0.1555948   0.7524812  )
         7        Ni     tau(   7) = (   0.2716741   0.0518649   0.6667284  )
         8        Ni     tau(   8) = (   0.7716766   0.1555948   0.7524957  )
         9        Ni     tau(   9) = (   0.5004590   0.0518649   0.7011256  )
        10        Ni     tau(  10) = (   0.0004579   0.1555948   0.7180981  )
        11        Te     tau(  11) = (   0.8057052   0.1555948   0.5972198  )
        12        Te     tau(  12) = (   0.3057012   0.0518649   0.8220046  )
        13        Te     tau(  13) = (   0.6006311   0.0518649   0.5963172  )
        14        Te     tau(  14) = (   0.1006292   0.1555948   0.8229072  )
        15        Te     tau(  15) = (   0.1952149   0.1555948   0.5972072  )
        16        Te     tau(  16) = (   0.6952178   0.0518649   0.8220171  )
        17        Te     tau(  17) = (   0.4003072   0.0518649   0.5963080  )
        18        Te     tau(  18) = (   0.9003091   0.1555948   0.8229170  )
        19        Te     tau(  19) = (   0.0004704   0.0518649   0.6143601  )
        20        Te     tau(  20) = (   0.5004710   0.1555948   0.8048626  )

     number of k points=    12  Gaussian smearing, width (Ry)=  0.0020
                       cart. coord. in units 2pi/alat
        k(    1) = (   0.0000000   0.0000000   0.0000000), wk =   0.1000000
        k(    2) = (   0.0000000   0.5239389   0.0000000), wk =   0.2000000
        k(    3) = (   0.0000000   1.0478779   0.0000000), wk =   0.2000000
        k(    4) = (   0.0000000   1.5718168   0.0000000), wk =   0.2000000
        k(    5) = (   0.0000000   2.0957557   0.0000000), wk =   0.2000000
        k(    6) = (   0.0000000  -2.6196947   0.0000000), wk =   0.1000000
        k(    7) = (  -0.5000000   0.0000000   0.0000000), wk =   0.1000000
        k(    8) = (  -0.5000000   0.5239389   0.0000000), wk =   0.2000000
        k(    9) = (  -0.5000000   1.0478779   0.0000000), wk =   0.2000000
        k(   10) = (  -0.5000000   1.5718168   0.0000000), wk =   0.2000000
        k(   11) = (  -0.5000000   2.0957557   0.0000000), wk =   0.2000000
        k(   12) = (  -0.5000000  -2.6196947   0.0000000), wk =   0.1000000

     Dense  grid:  1782013 G-vectors     FFT dimensions: ( 240,  45, 360)

     Smooth grid:   630123 G-vectors     FFT dimensions: ( 180,  32, 240)

     Estimated max dynamical RAM per process >       9.10 GB

     Initial potential from superposition of free atoms

     starting charge     219.9927, renormalised to     220.0000

     negative rho (up, down):  4.855E-02 0.000E+00
     Starting wfcs are  260 randomized atomic wfcs
     Checking if some PAW data can be deallocated... 

     total cpu time spent up to now is       65.6 secs

     Self-consistent Calculation

     iteration #  1     ecut=    60.00 Ry     beta= 0.20
     Davidson diagonalization with overlap
     ethr =  1.00E-02,  avg # of iterations =  2.9

     negative rho (up, down):  4.916E-02 0.000E+00

     total cpu time spent up to now is      102.4 secs

     total energy              =   -9107.73909219 Ry
     estimated scf accuracy    <       7.88350251 Ry

     iteration #  2     ecut=    60.00 Ry     beta= 0.20
     Davidson diagonalization with overlap
     ethr =  3.58E-03,  avg # of iterations =  2.1

     negative rho (up, down):  5.100E-02 0.000E+00

     total cpu time spent up to now is      139.0 secs

     total energy              =   -9108.26483994 Ry
     estimated scf accuracy    <      10.47554488 Ry

     iteration #  3     ecut=    60.00 Ry     beta= 0.20
     Davidson diagonalization with overlap
     ethr =  3.58E-03,  avg # of iterations =  1.0

     negative rho (up, down):  5.206E-02 0.000E+00

     total cpu time spent up to now is      175.8 secs

     total energy              =   -9109.52395784 Ry
     estimated scf accuracy    <       3.57644418 Ry

     iteration #  4     ecut=    60.00 Ry     beta= 0.20
     Davidson diagonalization with overlap
     ethr =  1.63E-03,  avg # of iterations =  1.0

     negative rho (up, down):  5.348E-02 0.000E+00

     total cpu time spent up to now is      212.4 secs

     total energy              =   -9109.69928480 Ry
     estimated scf accuracy    <       0.68383399 Ry

     iteration #  5     ecut=    60.00 Ry     beta= 0.20
     Davidson diagonalization with overlap
     ethr =  3.11E-04,  avg # of iterations =  1.0

     negative rho (up, down):  6.036E-02 0.000E+00

     total cpu time spent up to now is      248.7 secs

     total energy              =   -9109.57527343 Ry
     estimated scf accuracy    <       0.37591264 Ry

     iteration #  6     ecut=    60.00 Ry     beta= 0.20
     Davidson diagonalization with overlap
     ethr =  1.71E-04,  avg # of iterations =  7.2

     negative rho (up, down):  6.216E-02 0.000E+00

     total cpu time spent up to now is      286.0 secs

     total energy              =   -9109.67045189 Ry
     estimated scf accuracy    <       0.36817680 Ry

     iteration #  7     ecut=    60.00 Ry     beta= 0.20
     Davidson diagonalization with overlap
     ethr =  1.67E-04,  avg # of iterations =  1.2

     negative rho (up, down):  6.251E-02 0.000E+00

     total cpu time spent up to now is      322.5 secs

     total energy              =   -9109.64856895 Ry
     estimated scf accuracy    <       0.37302182 Ry

     iteration #  8     ecut=    60.00 Ry     beta= 0.20
     Davidson diagonalization with overlap
     ethr =  1.67E-04,  avg # of iterations =  1.1

     negative rho (up, down):  6.263E-02 0.000E+00

     total cpu time spent up to now is      359.1 secs

     total energy              =   -9109.64461153 Ry
     estimated scf accuracy    <       0.07614703 Ry

     iteration #  9     ecut=    60.00 Ry     beta= 0.20
     Davidson diagonalization with overlap
     c_bands:  3 eigenvalues not converged
     c_bands:  1 eigenvalues not converged
     c_bands:  1 eigenvalues not converged
     ethr =  3.46E-05,  avg # of iterations = 10.3

     negative rho (up, down):  6.358E-02 0.000E+00

     total cpu time spent up to now is      396.7 secs

     total energy              =   -9109.65469162 Ry
     estimated scf accuracy    <       0.01008706 Ry

     iteration # 10     ecut=    60.00 Ry     beta= 0.20
     Davidson diagonalization with overlap
     c_bands:  3 eigenvalues not converged
     c_bands:  1 eigenvalues not converged
     ethr =  4.59E-06,  avg # of iterations = 12.6

     negative rho (up, down):  6.562E-02 0.000E+00

     total cpu time spent up to now is      435.2 secs

     total energy              =   -9109.64765588 Ry
     estimated scf accuracy    <       0.05572393 Ry

     iteration # 11     ecut=    60.00 Ry     beta= 0.20
     Davidson diagonalization with overlap
     ethr =  4.59E-06,  avg # of iterations =  4.0

     negative rho (up, down):  6.605E-02 0.000E+00

     total cpu time spent up to now is      472.7 secs

     total energy              =   -9109.65286622 Ry
     estimated scf accuracy    <       0.00196038 Ry

     iteration # 12     ecut=    60.00 Ry     beta= 0.20
     Davidson diagonalization with overlap
     ethr =  8.91E-07,  avg # of iterations =  2.5

     negative rho (up, down):  6.621E-02 0.000E+00

     total cpu time spent up to now is      509.7 secs

     total energy              =   -9109.65288488 Ry
     estimated scf accuracy    <       0.00139958 Ry

     iteration # 13     ecut=    60.00 Ry     beta= 0.20
     Davidson diagonalization with overlap
     ethr =  6.36E-07,  avg # of iterations =  1.1

     negative rho (up, down):  6.645E-02 0.000E+00

     total cpu time spent up to now is      546.2 secs

     total energy              =   -9109.65301461 Ry
     estimated scf accuracy    <       0.00014485 Ry

     iteration # 14     ecut=    60.00 Ry     beta= 0.20
     Davidson diagonalization with overlap
     ethr =  6.58E-08,  avg # of iterations =  2.3

     negative rho (up, down):  6.659E-02 0.000E+00

     total cpu time spent up to now is      583.1 secs

     total energy              =   -9109.65302511 Ry
     estimated scf accuracy    <       0.00005032 Ry

     iteration # 15     ecut=    60.00 Ry     beta= 0.20
     Davidson diagonalization with overlap
     ethr =  2.29E-08,  avg # of iterations =  2.0

     negative rho (up, down):  6.670E-02 0.000E+00

     total cpu time spent up to now is      619.6 secs

     total energy              =   -9109.65302984 Ry
     estimated scf accuracy    <       0.00003589 Ry

     iteration # 16     ecut=    60.00 Ry     beta= 0.20
     Davidson diagonalization with overlap
     ethr =  1.63E-08,  avg # of iterations =  1.5

     negative rho (up, down):  6.672E-02 0.000E+00

     total cpu time spent up to now is      656.4 secs

     total energy              =   -9109.65303234 Ry
     estimated scf accuracy    <       0.00001381 Ry

     iteration # 17     ecut=    60.00 Ry     beta= 0.20
     Davidson diagonalization with overlap
     ethr =  6.28E-09,  avg # of iterations =  2.0

     negative rho (up, down):  6.669E-02 0.000E+00

     total cpu time spent up to now is      693.4 secs

     total energy              =   -9109.65303346 Ry
     estimated scf accuracy    <       0.00000286 Ry

     iteration # 18     ecut=    60.00 Ry     beta= 0.20
     Davidson diagonalization with overlap
     ethr =  1.30E-09,  avg # of iterations =  3.3

     negative rho (up, down):  6.666E-02 0.000E+00

     total cpu time spent up to now is      730.4 secs

     total energy              =   -9109.65303372 Ry
     estimated scf accuracy    <       0.00000248 Ry

     iteration # 19     ecut=    60.00 Ry     beta= 0.20
     Davidson diagonalization with overlap
     ethr =  1.13E-09,  avg # of iterations =  1.3

     negative rho (up, down):  6.666E-02 0.000E+00

     total cpu time spent up to now is      767.1 secs

     total energy              =   -9109.65303400 Ry
     estimated scf accuracy    <       0.00000130 Ry

     iteration # 20     ecut=    60.00 Ry     beta= 0.20
     Davidson diagonalization with overlap
     ethr =  5.91E-10,  avg # of iterations =  1.1

     negative rho (up, down):  6.662E-02 0.000E+00

     total cpu time spent up to now is      803.6 secs

     total energy              =   -9109.65303411 Ry
     estimated scf accuracy    <       0.00000036 Ry

     iteration # 21     ecut=    60.00 Ry     beta= 0.20
     Davidson diagonalization with overlap
     ethr =  1.62E-10,  avg # of iterations =  2.0

     negative rho (up, down):  6.660E-02 0.000E+00

     total cpu time spent up to now is      840.4 secs

     total energy              =   -9109.65303417 Ry
     estimated scf accuracy    <       0.00000013 Ry

     iteration # 22     ecut=    60.00 Ry     beta= 0.20
     Davidson diagonalization with overlap
     ethr =  6.05E-11,  avg # of iterations =  2.0

     negative rho (up, down):  6.660E-02 0.000E+00

     total cpu time spent up to now is      877.0 secs

     total energy              =   -9109.65303420 Ry
     estimated scf accuracy    <       0.00000008 Ry

     iteration # 23     ecut=    60.00 Ry     beta= 0.20
     Davidson diagonalization with overlap
     ethr =  3.41E-11,  avg # of iterations =  1.9

     negative rho (up, down):  6.659E-02 0.000E+00

     total cpu time spent up to now is      913.6 secs

     total energy              =   -9109.65303421 Ry
     estimated scf accuracy    <       0.00000009 Ry

     iteration # 24     ecut=    60.00 Ry     beta= 0.20
     Davidson diagonalization with overlap
     ethr =  3.41E-11,  avg # of iterations =  1.0

     negative rho (up, down):  6.658E-02 0.000E+00

     total cpu time spent up to now is      950.5 secs

     total energy              =   -9109.65303422 Ry
     estimated scf accuracy    <       0.00000001 Ry

     iteration # 25     ecut=    60.00 Ry     beta= 0.20
     Davidson diagonalization with overlap
     ethr =  5.60E-12,  avg # of iterations =  4.1

     negative rho (up, down):  6.658E-02 0.000E+00

     total cpu time spent up to now is      987.8 secs

     total energy              =   -9109.65303422 Ry
     estimated scf accuracy    <       0.00000002 Ry

     iteration # 26     ecut=    60.00 Ry     beta= 0.20
     Davidson diagonalization with overlap
     ethr =  5.60E-12,  avg # of iterations =  1.0

     negative rho (up, down):  6.656E-02 0.000E+00

     total cpu time spent up to now is     1024.0 secs

     End of self-consistent calculation

          k = 0.0000 0.0000 0.0000 ( 78593 PWs)   bands (ev):

  -103.1374-103.1374-103.1141-103.1141-102.7764-102.7763 -67.8637 -67.8636
   -67.8629 -67.8628 -63.7020 -63.7019 -63.6875 -63.6871 -63.5675 -63.5674
   -63.4751 -63.4749 -63.4719 -63.4718 -63.3860 -63.3860 -63.2892 -63.2891
   -63.2694 -63.2693 -63.0328 -63.0328 -34.4478 -34.4474 -34.4468 -34.4456
   -34.4405 -34.4358 -34.4348 -34.4292 -34.2895 -34.2894 -34.2889 -34.2888
   -13.1532 -12.8760 -12.7200 -12.2626 -12.2003 -11.9756 -11.8908 -11.8626
   -11.8134 -11.5178  -6.2358  -5.9902  -5.8398  -5.7303  -5.5357  -5.5257
    -5.5191  -4.8772  -4.7506  -4.3137  -4.2651  -3.9253  -3.8752  -3.8033
    -3.6635  -3.6373  -3.3140  -3.2671  -3.1061  -2.9355  -2.9234  -2.9159
    -2.6559  -2.6110  -2.5337  -2.3313  -2.3310  -2.2472  -2.2332  -2.2217
    -2.0121  -1.9518  -1.8991  -1.8730  -1.7833  -1.7538  -1.7481  -1.6015
    -1.5624  -1.4117  -1.4023  -1.3840  -1.2161  -1.1510  -1.0477  -0.9301
    -0.9173  -0.7405  -0.6622  -0.5388  -0.4289  -0.3057  -0.2909  -0.2475
    -0.0412   0.0307   0.2830   0.3403   0.3861   0.4066   0.8731   1.0764
     1.1510   1.5339   1.6465   1.6959   1.7440   1.8349   2.1450   2.2696
     2.5134   2.7582   2.7874   3.0198   3.2820   3.4873   3.6740   3.7925
     3.9113   3.9616   4.0898   4.1500

          k = 0.0000 0.5239 0.0000 ( 78653 PWs)   bands (ev):

  -103.1370-103.1370-103.1145-103.1145-102.7764-102.7763 -67.8631 -67.8630
   -67.8623 -67.8623 -63.7018 -63.7018 -63.6878 -63.6875 -63.5674 -63.5673
   -63.4878 -63.4877 -63.4595 -63.4594 -63.3864 -63.3864 -63.2893 -63.2892
   -63.2695 -63.2693 -63.0331 -63.0330 -34.4455 -34.4453 -34.4445 -34.4434
   -34.4382 -34.4339 -34.4330 -34.4277 -34.3071 -34.3071 -34.3065 -34.3064
   -13.0275 -12.7535 -12.6036 -12.1606 -12.1244 -11.8834 -11.8240 -11.7744
   -11.7217 -11.4521  -6.1168  -5.8771  -5.7117  -5.6012  -5.4306  -5.4057
    -5.3849  -4.7649  -4.6608  -4.2502  -4.2319  -3.9854  -3.9097  -3.8145
    -3.7038  -3.6190  -3.4248  -3.3321  -3.0909  -3.0384  -2.9654  -2.7518
    -2.7361  -2.6961  -2.6446  -2.5320  -2.5143  -2.4553  -2.2325  -2.1327
    -2.0650  -1.9792  -1.9310  -1.9130  -1.8709  -1.8195  -1.8096  -1.6826
    -1.6592  -1.5258  -1.4531  -1.3500  -1.2742  -1.1832  -1.1118  -1.0934
    -0.9315  -0.9015  -0.7250  -0.6595  -0.5209  -0.4754  -0.4158  -0.3905
    -0.1608  -0.0835  -0.0152   0.1239   0.4752   0.5147   0.6148   0.8813
     1.2530   1.5305   1.6442   1.6492   1.6887   1.7262   1.7810   1.9848
     2.4436   2.4990   2.8298   2.9209   2.9305   3.0391   3.4548   3.6572
     3.7828   3.8464   3.8793   4.0347

          k = 0.0000 1.0479 0.0000 ( 78702 PWs)   bands (ev):

  -103.1358-103.1358-103.1156-103.1156-102.7763-102.7763 -67.8615 -67.8615
   -67.8609 -67.8608 -63.7011 -63.7010 -63.6886 -63.6885 -63.5672 -63.5671
   -63.5013 -63.5013 -63.4467 -63.4467 -63.3873 -63.3872 -63.2892 -63.2892
   -63.2695 -63.2692 -63.0339 -63.0338 -34.4401 -34.4396 -34.4384 -34.4378
   -34.4324 -34.4291 -34.4283 -34.4239 -34.3529 -34.3525 -34.3520 -34.3516
   -12.6647 -12.4016 -12.2701 -11.9106 -11.8810 -11.6418 -11.6202 -11.5166
   -11.4657 -11.2707  -5.8076  -5.5688  -5.3806  -5.3163  -5.1491  -5.0453
    -5.0327  -4.5735  -4.5149  -4.3208  -4.1005  -4.0901  -3.9734  -3.9325
    -3.8873  -3.7259  -3.7064  -3.4890  -3.3512  -3.1399  -3.1292  -3.0769
    -3.0623  -2.9995  -2.8953  -2.6861  -2.6496  -2.4825  -2.3576  -2.3461
    -2.3205  -2.2470  -2.1987  -2.1503  -2.0441  -2.0351  -1.9665  -1.8805
    -1.7036  -1.6684  -1.6574  -1.5084  -1.5008  -1.3283  -1.2961  -1.2579
    -1.1447  -0.9562  -0.8557  -0.7882  -0.7254  -0.6938  -0.6906  -0.6788
    -0.6771  -0.3545  -0.1478   0.0250   0.0614   0.0971   0.9266   1.1633
     1.2679   1.3688   1.3730   1.4511   1.6157   1.6220   1.7963   1.9877
     2.2975   2.3459   2.4770   2.6453   2.8626   2.8798   3.1153   3.1947
     3.3524   3.5820   4.2720   4.4518

          k = 0.0000 1.5718 0.0000 ( 78818 PWs)   bands (ev):

  -103.1341-103.1341-103.1173-103.1173-102.7763-102.7763 -67.8596 -67.8596
   -67.8591 -67.8590 -63.7001 -63.7000 -63.6900 -63.6900 -63.5665 -63.5664
   -63.5134 -63.5134 -63.4359 -63.4358 -63.3886 -63.3886 -63.2891 -63.2891
   -63.2695 -63.2693 -63.0351 -63.0349 -34.4346 -34.4334 -34.4332 -34.4320
   -34.4301 -34.4274 -34.4266 -34.4233 -34.4041 -34.4026 -34.4016 -34.4003
   -12.1129 -11.8757 -11.7749 -11.6050 -11.5088 -11.3933 -11.2496 -11.1222
   -11.1169 -11.0234  -5.5803  -5.3129  -5.2953  -5.1867  -5.0424  -4.8869
    -4.8750  -4.7016  -4.6766  -4.5928  -4.3198  -4.2666  -4.2027  -4.1178
    -3.9856  -3.8915  -3.7844  -3.6550  -3.6519  -3.4405  -3.4303  -3.3489
    -3.3133  -2.9759  -2.9278  -2.8204  -2.8157  -2.8061  -2.6607  -2.6573
    -2.5741  -2.4678  -2.4359  -2.2281  -2.1529  -2.1345  -2.0661  -1.9966
    -1.8697  -1.8670  -1.8221  -1.6641  -1.5582  -1.3885  -1.3874  -1.2606
    -1.1571  -1.1234  -1.0678  -1.0302  -0.9096  -0.8999  -0.8850  -0.8204
    -0.7040  -0.4909  -0.4098  -0.2271  -0.2118  -0.1311   1.0832   1.1870
     1.2713   1.3297   1.4270   1.6615   1.8006   1.8506   1.9574   2.1075
     2.3124   2.4368   2.4616   2.7320   2.7886   3.0431   3.1842   3.2686
     3.6302   3.6415   4.2170   4.4592

          k = 0.0000 2.0958 0.0000 ( 78876 PWs)   bands (ev):

  -103.1324-103.1324-103.1189-103.1189-102.7763-102.7762 -67.8580 -67.8580
   -67.8576 -67.8576 -63.6989 -63.6988 -63.6913 -63.6913 -63.5654 -63.5654
   -63.5220 -63.5220 -63.4282 -63.4282 -63.3904 -63.3903 -63.2891 -63.2891
   -63.2694 -63.2693 -63.0359 -63.0358 -34.4614 -34.4604 -34.4599 -34.4589
   -34.4280 -34.4269 -34.4251 -34.4243 -34.4116 -34.4104 -34.4099 -34.4087
   -11.4834 -11.3192 -11.3190 -11.2240 -11.1825 -11.1734 -10.9096 -10.8465
   -10.7863 -10.7250  -6.0650  -6.0288  -5.9711  -5.8288  -5.3885  -5.2694
    -5.0674  -4.9902  -4.8440  -4.6639  -4.3172  -4.2842  -4.1494  -3.8176
    -3.7731  -3.7326  -3.6760  -3.6496  -3.4888  -3.4670  -3.4044  -3.3471
    -3.1882  -3.1168  -3.1120  -3.0881  -2.9423  -2.7951  -2.7084  -2.6269
    -2.5961  -2.5214  -2.5151  -2.2156  -2.1845  -2.1079  -2.1005  -2.0094
    -1.9596  -1.9084  -1.8943  -1.7563  -1.5885  -1.5177  -1.4029  -1.3901
    -1.2420  -1.1976  -1.1825  -1.1476  -1.0396  -1.0377  -0.9417  -0.8715
    -0.7233  -0.6588  -0.5325  -0.4417  -0.3824  -0.3646   0.8632   0.9959
     1.4127   1.4350   1.5151   1.5984   1.9990   2.1729   2.2398   2.3382
     2.5232   2.7396   2.8092   2.8148   2.9382   3.1375   3.5874   3.6741
     3.7659   3.8606   4.1547   4.1588

          k = 0.0000-2.6197 0.0000 ( 78852 PWs)   bands (ev):

  -103.1316-103.1316-103.1196-103.1196-102.7763-102.7762 -67.8574 -67.8574
   -67.8571 -67.8570 -63.6982 -63.6982 -63.6919 -63.6918 -63.5649 -63.5649
   -63.5252 -63.5249 -63.4254 -63.4253 -63.3912 -63.3910 -63.2891 -63.2891
   -63.2693 -63.2692 -63.0362 -63.0361 -34.4774 -34.4764 -34.4763 -34.4752
   -34.4260 -34.4252 -34.4231 -34.4226 -34.4098 -34.4091 -34.4082 -34.4077
   -11.1618 -11.1196 -11.0760 -11.0579 -11.0294 -10.9326 -10.8423 -10.8114
   -10.6389 -10.5870  -6.3965  -6.3611  -6.3002  -6.2428  -5.7042  -5.5928
    -5.1624  -5.1555  -4.9379  -4.9110  -4.0131  -3.9834  -3.9666  -3.8684
    -3.7960  -3.7562  -3.5189  -3.5156  -3.4622  -3.3595  -3.3138  -3.3062
    -3.2750  -3.2061  -3.1671  -2.9707  -2.9331  -2.7768  -2.7521  -2.7042
    -2.5479  -2.4884  -2.4124  -2.2644  -2.1515  -2.1105  -2.0459  -1.9583
    -1.8964  -1.8909  -1.8431  -1.8182  -1.6594  -1.6543  -1.5778  -1.4121
    -1.2554  -1.1466  -1.1169  -1.1080  -1.0910  -1.0440  -1.0381  -0.9206
    -0.8108  -0.7829  -0.6380  -0.6348  -0.5010  -0.3651   0.8455   0.9395
     1.4090   1.5089   1.5340   1.5806   1.9073   2.1107   2.2588   2.2805
     2.6804   2.8483   2.8991   2.9524   3.1231   3.2683   3.7096   3.9037
     4.0802   4.1059   4.1789   4.1898

          k =-0.5000 0.0000 0.0000 ( 78694 PWs)   bands (ev):

  -103.1374-103.1374-103.1141-103.1141-102.7764-102.7763 -67.8636 -67.8636
   -67.8629 -67.8629 -63.7021 -63.7021 -63.6874 -63.6874 -63.5675 -63.5675
   -63.4751 -63.4751 -63.4720 -63.4720 -63.3862 -63.3862 -63.2893 -63.2893
   -63.2695 -63.2694 -63.0329 -63.0328 -34.4476 -34.4476 -34.4462 -34.4462
   -34.4392 -34.4392 -34.4310 -34.4310 -34.2894 -34.2894 -34.2888 -34.2888
   -13.0641 -13.0641 -12.4486 -12.4485 -12.1283 -12.1282 -11.8809 -11.8808
   -11.6141 -11.6141  -6.1466  -6.1466  -5.8434  -5.8434  -5.4761  -5.4761
    -5.1399  -5.1399  -4.6784  -4.6784  -3.9892  -3.9891  -3.8014  -3.8014
    -3.5662  -3.5662  -3.2911  -3.2911  -3.2091  -3.2090  -2.9216  -2.9215
    -2.6294  -2.6294  -2.4385  -2.4385  -2.2824  -2.2824  -2.1265  -2.1264
    -1.9242  -1.9242  -1.8992  -1.8992  -1.8375  -1.8374  -1.6575  -1.6574
    -1.5211  -1.5211  -1.4134  -1.4134  -1.1609  -1.1609  -0.9513  -0.9513
    -0.8448  -0.8448  -0.5613  -0.5613  -0.3986  -0.3986  -0.2434  -0.2434
    -0.0354  -0.0354   0.3028   0.3028   0.4023   0.4023   1.0100   1.0101
     1.3159   1.3159   1.6481   1.6481   1.7171   1.7171   2.2189   2.2189
     2.7351   2.7351   2.7969   2.7969   3.4105   3.4105   3.7937   3.7938
     3.9039   3.9040   4.0667   4.0670

          k =-0.5000 0.5239 0.0000 ( 78694 PWs)   bands (ev):

  -103.1370-103.1370-103.1145-103.1145-102.7764-102.7763 -67.8631 -67.8631
   -67.8623 -67.8623 -63.7018 -63.7018 -63.6877 -63.6877 -63.5674 -63.5673
   -63.4878 -63.4878 -63.4595 -63.4595 -63.3864 -63.3864 -63.2893 -63.2893
   -63.2695 -63.2694 -63.0331 -63.0330 -34.4454 -34.4454 -34.4439 -34.4439
   -34.4370 -34.4370 -34.4294 -34.4294 -34.3071 -34.3071 -34.3065 -34.3065
   -12.9398 -12.9397 -12.3369 -12.3369 -12.0527 -12.0527 -11.7903 -11.7903
   -11.5427 -11.5427  -6.0284  -6.0284  -5.7176  -5.7175  -5.3507  -5.3507
    -5.0286  -5.0286  -4.6043  -4.6043  -4.0319  -4.0319  -3.8032  -3.8031
    -3.5347  -3.5347  -3.3849  -3.3849  -3.2715  -3.2714  -2.8857  -2.8857
    -2.6861  -2.6861  -2.5931  -2.5931  -2.4493  -2.4492  -2.1259  -2.1259
    -1.9867  -1.9867  -1.9276  -1.9276  -1.8788  -1.8788  -1.7282  -1.7282
    -1.6390  -1.6389  -1.4422  -1.4422  -1.1870  -1.1870  -1.0594  -1.0594
    -0.9014  -0.9014  -0.7325  -0.7324  -0.4888  -0.4888  -0.4035  -0.4034
    -0.1206  -0.1206   0.0401   0.0402   0.5033   0.5034   0.7544   0.7544
     1.4446   1.4446   1.6119   1.6119   1.7042   1.7042   1.8232   1.8232
     2.4593   2.4594   2.8370   2.8370   2.9822   2.9822   3.5907   3.5907
     3.7793   3.7793   4.0320   4.0325

          k =-0.5000 1.0479 0.0000 ( 78652 PWs)   bands (ev):

  -103.1358-103.1358-103.1156-103.1156-102.7763-102.7763 -67.8615 -67.8615
   -67.8609 -67.8608 -63.7010 -63.7010 -63.6886 -63.6886 -63.5671 -63.5671
   -63.5012 -63.5012 -63.4466 -63.4466 -63.3872 -63.3872 -63.2891 -63.2891
   -63.2694 -63.2693 -63.0338 -63.0338 -34.4398 -34.4398 -34.4382 -34.4382
   -34.4315 -34.4315 -34.4253 -34.4253 -34.3528 -34.3528 -34.3517 -34.3517
   -12.5812 -12.5812 -12.0211 -12.0211 -11.8400 -11.8400 -11.5391 -11.5391
   -11.3398 -11.3398  -5.7155  -5.7155  -5.3895  -5.3895  -5.0199  -5.0198
    -4.7984  -4.7984  -4.4762  -4.4762  -4.1530  -4.1529  -3.9529  -3.9529
    -3.5866  -3.5866  -3.5169  -3.5169  -3.4515  -3.4515  -3.1500  -3.1500
    -3.0267  -3.0267  -2.7833  -2.7833  -2.5923  -2.5923  -2.3081  -2.3081
    -2.2573  -2.2573  -2.1969  -2.1969  -2.0283  -2.0283  -1.8862  -1.8862
    -1.7647  -1.7647  -1.5880  -1.5880  -1.3299  -1.3299  -1.2644  -1.2644
    -1.0838  -1.0838  -0.8996  -0.8996  -0.7484  -0.7484  -0.6392  -0.6392
    -0.4733  -0.4733  -0.0457  -0.0457   0.0955   0.0955   1.0120   1.0120
     1.3321   1.3321   1.5092   1.5092   1.6567   1.6568   1.8722   1.8723
     2.1095   2.1095   2.5687   2.5687   2.9088   2.9088   3.1809   3.1810
     3.4260   3.4260   4.3694   4.3695

          k =-0.5000 1.5718 0.0000 ( 78758 PWs)   bands (ev):

  -103.1341-103.1341-103.1173-103.1173-102.7763-102.7763 -67.8596 -67.8596
   -67.8590 -67.8590 -63.6999 -63.6999 -63.6899 -63.6899 -63.5664 -63.5664
   -63.5133 -63.5133 -63.4358 -63.4358 -63.3886 -63.3886 -63.2891 -63.2891
   -63.2693 -63.2693 -63.0350 -63.0349 -34.4341 -34.4341 -34.4325 -34.4325
   -34.4293 -34.4293 -34.4244 -34.4244 -34.4035 -34.4035 -34.4008 -34.4008
   -12.0385 -12.0385 -11.5812 -11.5812 -11.5290 -11.5290 -11.2028 -11.2028
   -11.0397 -11.0397  -5.4640  -5.4639  -5.2053  -5.2053  -5.0560  -5.0560
    -4.7681  -4.7681  -4.5987  -4.5986  -4.3461  -4.3461  -4.0588  -4.0587
    -3.8832  -3.8832  -3.7824  -3.7824  -3.6000  -3.6000  -3.3689  -3.3689
    -3.0847  -3.0847  -2.9678  -2.9678  -2.7998  -2.7998  -2.6600  -2.6600
    -2.5335  -2.5335  -2.3041  -2.3041  -2.1489  -2.1489  -1.9984  -1.9983
    -1.9189  -1.9189  -1.7410  -1.7410  -1.4514  -1.4514  -1.2943  -1.2943
    -1.1660  -1.1660  -1.0295  -1.0295  -0.9547  -0.9547  -0.8066  -0.8065
    -0.6347  -0.6347  -0.3068  -0.3067  -0.1605  -0.1604   1.0808   1.0808
     1.4938   1.4938   1.5755   1.5755   1.7619   1.7619   1.9773   1.9773
     2.2525   2.2526   2.5792   2.5792   2.9743   2.9744   3.3042   3.3042
     3.5336   3.5336   4.4602   4.4602

          k =-0.5000 2.0958 0.0000 ( 78872 PWs)   bands (ev):

  -103.1324-103.1324-103.1189-103.1189-102.7763-102.7762 -67.8580 -67.8580
   -67.8576 -67.8576 -63.6988 -63.6988 -63.6913 -63.6913 -63.5654 -63.5654
   -63.5220 -63.5220 -63.4282 -63.4282 -63.3903 -63.3903 -63.2891 -63.2890
   -63.2693 -63.2693 -63.0359 -63.0359 -34.4610 -34.4610 -34.4593 -34.4592
   -34.4275 -34.4275 -34.4246 -34.4246 -34.4112 -34.4112 -34.4091 -34.4091
   -11.4308 -11.4307 -11.2641 -11.2641 -11.1430 -11.1430 -10.9056 -10.9056
   -10.7411 -10.7411  -6.0729  -6.0729  -5.8622  -5.8622  -5.3512  -5.3512
    -5.0406  -5.0406  -4.7323  -4.7323  -4.3122  -4.3122  -4.0023  -4.0023
    -3.7888  -3.7888  -3.6715  -3.6714  -3.4268  -3.4268  -3.3300  -3.3300
    -3.1382  -3.1381  -3.0450  -3.0450  -2.9482  -2.9482  -2.7207  -2.7207
    -2.5459  -2.5459  -2.2923  -2.2923  -2.1894  -2.1894  -2.0783  -2.0783
    -1.9505  -1.9505  -1.8111  -1.8111  -1.4943  -1.4943  -1.4418  -1.4418
    -1.2126  -1.2126  -1.1720  -1.1719  -1.0457  -1.0457  -0.8559  -0.8559
    -0.7613  -0.7613  -0.4383  -0.4382  -0.4005  -0.4005   0.9220   0.9220
     1.4627   1.4627   1.7420   1.7421   1.8509   1.8509   2.3629   2.3630
     2.6001   2.6001   2.7203   2.7203   3.0531   3.0531   3.6402   3.6402
     3.8739   3.8739   4.0922   4.0922

          k =-0.5000-2.6197 0.0000 ( 78916 PWs)   bands (ev):

  -103.1316-103.1316-103.1196-103.1196-102.7763-102.7762 -67.8574 -67.8574
   -67.8570 -67.8570 -63.6984 -63.6984 -63.6919 -63.6919 -63.5649 -63.5649
   -63.5252 -63.5252 -63.4253 -63.4253 -63.3911 -63.3911 -63.2890 -63.2890
   -63.2694 -63.2693 -63.0363 -63.0362 -34.4771 -34.4771 -34.4755 -34.4755
   -34.4256 -34.4256 -34.4228 -34.4228 -34.4095 -34.4095 -34.4079 -34.4079
   -11.1436 -11.1436 -11.0723 -11.0723 -10.9751 -10.9751 -10.8273 -10.8273
   -10.6100 -10.6100  -6.4215  -6.4215  -6.2198  -6.2197  -5.6537  -5.6536
    -5.1568  -5.1567  -4.9351  -4.9351  -4.0105  -4.0104  -3.8933  -3.8933
    -3.7440  -3.7440  -3.5770  -3.5770  -3.4540  -3.4540  -3.3607  -3.3607
    -3.2261  -3.2260  -2.9354  -2.9354  -2.8635  -2.8635  -2.7506  -2.7506
    -2.4725  -2.4725  -2.2851  -2.2851  -2.2426  -2.2426  -2.0033  -2.0033
    -1.8776  -1.8776  -1.8346  -1.8346  -1.6515  -1.6515  -1.5013  -1.5013
    -1.2083  -1.2083  -1.1526  -1.1525  -1.0633  -1.0633  -0.9535  -0.9535
    -0.8027  -0.8027  -0.6428  -0.6428  -0.4121  -0.4121   0.8968   0.8968
     1.4358   1.4359   1.7092   1.7092   1.8262   1.8263   2.4581   2.4581
     2.5870   2.5870   2.8796   2.8796   3.2046   3.2046   3.9039   3.9040
     4.0538   4.0540   4.2271   4.2272

     the Fermi energy is     0.5656 ev

!    total energy              =   -9109.65303422 Ry
     total all-electron energy =     -9109.653034 Ry
     estimated scf accuracy    <          1.4E-09 Ry
     smearing contrib. (-TS)   =      -0.00000889 Ry
     internal energy E=F+TS    =   -9109.65302533 Ry

     The total energy is F=E-TS. E is the sum of the following terms:
     one-electron contribution =  -17628.15728311 Ry
     hartree contribution      =    8675.77444767 Ry
     xc contribution           =    -366.35895151 Ry
     ewald contribution        =    6476.89981474 Ry
     one-center paw contrib.   =   -6267.81105312 Ry

     convergence has been achieved in  26 iterations

     negative rho (up, down):  6.656E-02 0.000E+00

     Forces acting on atoms (cartesian axes, Ry/au):

     atom    1 type  1   force =     0.01932502    0.06871521   -0.03302527
     atom    2 type  1   force =     0.01932465   -0.06872666    0.03302398
     atom    3 type  1   force =    -0.01936692    0.06872778   -0.03300176
     atom    4 type  1   force =    -0.01938506   -0.06873628    0.03300813
     atom    5 type  2   force =    -0.02184794    0.07642397   -0.02042723
     atom    6 type  2   force =    -0.02184413   -0.07639714    0.02041561
     atom    7 type  2   force =     0.02193053    0.07639354   -0.02043235
     atom    8 type  2   force =     0.02190916   -0.07636904    0.02043065
     atom    9 type  2   force =     0.00003671    0.04043978   -0.03820672
     atom   10 type  2   force =     0.00005259   -0.04043007    0.03822127
     atom   11 type  3   force =     0.01750380   -0.05162860   -0.06254131
     atom   12 type  3   force =     0.01751080    0.05162188    0.06254054
     atom   13 type  3   force =    -0.00834012    0.03040851   -0.05118367
     atom   14 type  3   force =    -0.00834062   -0.03041659    0.05118274
     atom   15 type  3   force =    -0.01746900   -0.05162700   -0.06254760
     atom   16 type  3   force =    -0.01747084    0.05161912    0.06254467
     atom   17 type  3   force =     0.00829096    0.03040766   -0.05118031
     atom   18 type  3   force =     0.00828544   -0.03041586    0.05118073
     atom   19 type  3   force =    -0.00005199    0.03249020   -0.04947759
     atom   20 type  3   force =    -0.00005305   -0.03250041    0.04947549

     Total force =     0.326900     Total SCF correction =     0.000143


     Computing stress (Cartesian axis) and pressure


     negative rho (up, down):  6.656E-02 0.000E+00
          total   stress  (Ry/bohr**3)                   (kbar)     P=       31.43
   0.00014169  -0.00000000  -0.00000000           20.84       -0.00       -0.00
  -0.00000000   0.00032396  -0.00003887           -0.00       47.66       -5.72
  -0.00000000  -0.00003887   0.00017543           -0.00       -5.72       25.81


     BFGS Geometry Optimization
     Energy error            =      0.0E+00 Ry
     Gradient error          =      7.6E-02 Ry/Bohr

     number of scf cycles    =   1
     number of bfgs steps    =   0

     energy             new  =   -9109.6530342195 Ry

     new trust radius        =       0.0829657185 bohr
     new conv_thr            =       0.0000000100 Ry


ATOMIC_POSITIONS (angstrom)
Ta              15.4020671868        0.9512860891       12.4263640115
Ta               6.5817766791        2.7084011014       12.6094718732
Ta               2.2549070795        0.9512927382       12.4262021841
Ta              11.0751952168        2.7083960061       12.6096236355
Ni              12.8528467275        0.9553653887       11.7508799689
Ni               4.0325407092        2.7043420545       13.2849474245
Ni               4.8040718615        0.9553492824       11.7506106245
Ni              13.6243544430        2.7043569232       13.2852124429
Ni               8.8283660913        0.9363233761       12.3479874705
Ni               0.0081047312        2.7233750089       12.6878356349
Te              14.2223049891        2.7174490050       10.5021613152
Te               5.4019881733        0.9422406881       14.5336671361
Te              10.5910197171        0.9310150531       10.4922486463
Te               1.7707364167        2.7286739168       14.5435796965
Te               3.4344444972        2.7174498509       10.5019347782
Te              12.2547443637        0.9422392245       14.5338897616
Te               7.0660058114        0.9310146027       10.4920878192
Te              15.8862863724        2.7286743019       14.5437508048
Te               0.0082714110        0.9321166368       10.8114366499
Te               8.8285298855        2.7275712055       14.2243591214



     Writing config-only to output data dir /ddn/data/physics/eamoujaes/2D-Ta2Ni3Te5/ELASTIC/C22/OUT/ta2ni3te5.save/ :
     XML data file
     NEW-OLD atomic charge density approx. for the potential

     negative rho (up, down):  6.476E-02 0.000E+00

     total cpu time spent up to now is     1117.7 secs

     Self-consistent Calculation

     iteration #  1     ecut=    60.00 Ry     beta= 0.20
     Davidson diagonalization with overlap
     c_bands:  1 eigenvalues not converged
     c_bands:  1 eigenvalues not converged
     c_bands:  2 eigenvalues not converged
     ethr =  1.00E-06,  avg # of iterations = 14.6

     negative rho (up, down):  6.484E-02 0.000E+00

     total cpu time spent up to now is     1159.9 secs

     total energy              =   -9109.58312992 Ry
     estimated scf accuracy    <       0.40528846 Ry

     iteration #  2     ecut=    60.00 Ry     beta= 0.20
     Davidson diagonalization with overlap
     ethr =  1.84E-04,  avg # of iterations =  3.0

     negative rho (up, down):  6.499E-02 0.000E+00

     total cpu time spent up to now is     1197.0 secs

     total energy              =   -9109.59845722 Ry
     estimated scf accuracy    <       2.34037047 Ry

     iteration #  3     ecut=    60.00 Ry     beta= 0.20
     Davidson diagonalization with overlap
     ethr =  1.84E-04,  avg # of iterations =  2.0

     negative rho (up, down):  6.505E-02 0.000E+00

     total cpu time spent up to now is     1233.8 secs

     total energy              =   -9109.73217293 Ry
     estimated scf accuracy    <       0.15829572 Ry

     iteration #  4     ecut=    60.00 Ry     beta= 0.20
     Davidson diagonalization with overlap
     ethr =  7.20E-05,  avg # of iterations =  1.0

     negative rho (up, down):  6.522E-02 0.000E+00

     total cpu time spent up to now is     1269.9 secs

     total energy              =   -9109.73812981 Ry
     estimated scf accuracy    <       0.01155377 Ry

     iteration #  5     ecut=    60.00 Ry     beta= 0.20
     Davidson diagonalization with overlap
     ethr =  5.25E-06,  avg # of iterations =  2.4

     negative rho (up, down):  6.551E-02 0.000E+00

     total cpu time spent up to now is     1306.4 secs

     total energy              =   -9109.73376047 Ry
     estimated scf accuracy    <       0.01156205 Ry

     iteration #  6     ecut=    60.00 Ry     beta= 0.20
     Davidson diagonalization with overlap
     ethr =  5.25E-06,  avg # of iterations =  2.0

     negative rho (up, down):  6.557E-02 0.000E+00

     total cpu time spent up to now is     1343.0 secs

     total energy              =   -9109.73408302 Ry
     estimated scf accuracy    <       0.00382484 Ry

     iteration #  7     ecut=    60.00 Ry     beta= 0.20
     Davidson diagonalization with overlap
     ethr =  1.74E-06,  avg # of iterations =  1.6

     negative rho (up, down):  6.562E-02 0.000E+00

     total cpu time spent up to now is     1379.7 secs

     total energy              =   -9109.73396019 Ry
     estimated scf accuracy    <       0.00115412 Ry

     iteration #  8     ecut=    60.00 Ry     beta= 0.20
     Davidson diagonalization with overlap
     ethr =  5.25E-07,  avg # of iterations =  2.0

     negative rho (up, down):  6.565E-02 0.000E+00

     total cpu time spent up to now is     1416.7 secs

     total energy              =   -9109.73393036 Ry
     estimated scf accuracy    <       0.00052971 Ry

     iteration #  9     ecut=    60.00 Ry     beta= 0.20
     Davidson diagonalization with overlap
     ethr =  2.41E-07,  avg # of iterations =  1.6

     negative rho (up, down):  6.568E-02 0.000E+00

     total cpu time spent up to now is     1454.2 secs

     total energy              =   -9109.73389890 Ry
     estimated scf accuracy    <       0.00007047 Ry

     iteration # 10     ecut=    60.00 Ry     beta= 0.20
     Davidson diagonalization with overlap
     ethr =  3.20E-08,  avg # of iterations =  3.6

     negative rho (up, down):  6.571E-02 0.000E+00

     total cpu time spent up to now is     1491.3 secs

     total energy              =   -9109.73388088 Ry
     estimated scf accuracy    <       0.00005756 Ry

     iteration # 11     ecut=    60.00 Ry     beta= 0.20
     Davidson diagonalization with overlap
     ethr =  2.62E-08,  avg # of iterations =  2.0

     negative rho (up, down):  6.572E-02 0.000E+00

     total cpu time spent up to now is     1528.5 secs

     total energy              =   -9109.73387852 Ry
     estimated scf accuracy    <       0.00007946 Ry

     iteration # 12     ecut=    60.00 Ry     beta= 0.20
     Davidson diagonalization with overlap
     ethr =  2.62E-08,  avg # of iterations =  1.7

     negative rho (up, down):  6.572E-02 0.000E+00

     total cpu time spent up to now is     1565.1 secs

     total energy              =   -9109.73388137 Ry
     estimated scf accuracy    <       0.00001908 Ry

     iteration # 13     ecut=    60.00 Ry     beta= 0.20
     Davidson diagonalization with overlap
     ethr =  8.67E-09,  avg # of iterations =  2.0

     negative rho (up, down):  6.573E-02 0.000E+00

     total cpu time spent up to now is     1602.3 secs

     total energy              =   -9109.73388489 Ry
     estimated scf accuracy    <       0.00000382 Ry

     iteration # 14     ecut=    60.00 Ry     beta= 0.20
     Davidson diagonalization with overlap
     ethr =  1.73E-09,  avg # of iterations =  2.9

     negative rho (up, down):  6.573E-02 0.000E+00

     total cpu time spent up to now is     1639.2 secs

     total energy              =   -9109.73388401 Ry
     estimated scf accuracy    <       0.00000542 Ry

     iteration # 15     ecut=    60.00 Ry     beta= 0.20
     Davidson diagonalization with overlap
     ethr =  1.73E-09,  avg # of iterations =  1.0

     negative rho (up, down):  6.572E-02 0.000E+00

     total cpu time spent up to now is     1675.9 secs

     total energy              =   -9109.73388341 Ry
     estimated scf accuracy    <       0.00000187 Ry

     iteration # 16     ecut=    60.00 Ry     beta= 0.20
     Davidson diagonalization with overlap
     ethr =  8.49E-10,  avg # of iterations =  1.0

     negative rho (up, down):  6.572E-02 0.000E+00

     total cpu time spent up to now is     1712.6 secs

     total energy              =   -9109.73388348 Ry
     estimated scf accuracy    <       0.00000041 Ry

     iteration # 17     ecut=    60.00 Ry     beta= 0.20
     Davidson diagonalization with overlap
     ethr =  1.87E-10,  avg # of iterations =  1.9

     negative rho (up, down):  6.572E-02 0.000E+00

     total cpu time spent up to now is     1749.2 secs

     total energy              =   -9109.73388346 Ry
     estimated scf accuracy    <       0.00000014 Ry

     iteration # 18     ecut=    60.00 Ry     beta= 0.20
     Davidson diagonalization with overlap
     ethr =  6.25E-11,  avg # of iterations =  2.0

     negative rho (up, down):  6.572E-02 0.000E+00

     total cpu time spent up to now is     1786.0 secs

     total energy              =   -9109.73388344 Ry
     estimated scf accuracy    <       0.00000011 Ry

     iteration # 19     ecut=    60.00 Ry     beta= 0.20
     Davidson diagonalization with overlap
     ethr =  4.94E-11,  avg # of iterations =  1.7

     negative rho (up, down):  6.572E-02 0.000E+00

     total cpu time spent up to now is     1822.5 secs

     total energy              =   -9109.73388345 Ry
     estimated scf accuracy    <       0.00000003 Ry

     iteration # 20     ecut=    60.00 Ry     beta= 0.20
     Davidson diagonalization with overlap
     ethr =  1.56E-11,  avg # of iterations =  1.5

     negative rho (up, down):  6.572E-02 0.000E+00

     total cpu time spent up to now is     1859.4 secs

     End of self-consistent calculation

          k = 0.0000 0.0000 0.0000 ( 78593 PWs)   bands (ev):

  -103.0804-103.0803-103.0618-103.0618-102.7496-102.7496 -67.8984 -67.8983
   -67.8978 -67.8977 -63.6400 -63.6399 -63.6287 -63.6282 -63.4892 -63.4890
   -63.4199 -63.4198 -63.4142 -63.4141 -63.3460 -63.3459 -63.2606 -63.2605
   -63.2515 -63.2515 -62.9924 -62.9923 -34.4668 -34.4656 -34.4638 -34.4636
   -34.4522 -34.4488 -34.4485 -34.4439 -34.3012 -34.3011 -34.3008 -34.3006
   -13.0560 -12.7600 -12.6552 -12.1818 -12.1546 -11.9341 -11.8354 -11.8013
   -11.7552 -11.4677  -6.2008  -5.9400  -5.7857  -5.6619  -5.4901  -5.4766
    -5.4578  -4.7875  -4.6624  -4.2237  -4.1478  -3.7998  -3.7535  -3.7459
    -3.5643  -3.5301  -3.2107  -3.1759  -3.0119  -2.8540  -2.7755  -2.7689
    -2.5954  -2.5319  -2.3989  -2.2621  -2.2599  -2.1823  -2.1773  -2.1215
    -1.9367  -1.8955  -1.8592  -1.8192  -1.7562  -1.7239  -1.7053  -1.6381
    -1.5696  -1.3458  -1.3180  -1.3143  -1.1995  -1.1284  -0.9783  -0.9312
    -0.9137  -0.7648  -0.6560  -0.4427  -0.3345  -0.2809  -0.2680  -0.1646
     0.0239   0.1093   0.2950   0.3309   0.3435   0.3746   0.8236   1.0247
     1.0940   1.4678   1.5640   1.7208   1.7484   1.7550   2.1246   2.2562
     2.4753   2.7752   2.7977   3.0008   3.2525   3.4929   3.6319   3.7869
     3.9039   3.9596   4.0475   4.1400

          k = 0.0000 0.5239 0.0000 ( 78653 PWs)   bands (ev):

  -103.0799-103.0799-103.0622-103.0622-102.7496-102.7495 -67.8978 -67.8978
   -67.8972 -67.8972 -63.6399 -63.6399 -63.6290 -63.6286 -63.4889 -63.4889
   -63.4305 -63.4305 -63.4038 -63.4037 -63.3465 -63.3464 -63.2607 -63.2606
   -63.2517 -63.2515 -62.9926 -62.9925 -34.4649 -34.4635 -34.4618 -34.4615
   -34.4498 -34.4467 -34.4463 -34.4422 -34.3186 -34.3186 -34.3182 -34.3181
   -12.9312 -12.6380 -12.5395 -12.0801 -12.0768 -11.8442 -11.7638 -11.7114
   -11.6633 -11.3999  -6.0797  -5.8248  -5.6551  -5.5254  -5.3757  -5.3725
    -5.3255  -4.6754  -4.5661  -4.1580  -4.1106  -3.8574  -3.7865  -3.7562
    -3.5618  -3.5482  -3.3293  -3.2395  -2.9924  -2.9329  -2.8317  -2.6713
    -2.6363  -2.5659  -2.5340  -2.4951  -2.4386  -2.3680  -2.1371  -2.0536
    -2.0203  -1.9328  -1.8675  -1.8243  -1.8047  -1.7716  -1.7639  -1.6660
    -1.6648  -1.4870  -1.4488  -1.3453  -1.2485  -1.1467  -1.0571  -1.0128
    -0.9255  -0.8996  -0.7036  -0.5462  -0.4972  -0.4534  -0.3890  -0.3465
    -0.1586  -0.1350   0.0398   0.1221   0.4520   0.5046   0.6178   0.8475
     1.1954   1.4973   1.5704   1.5983   1.6603   1.6812   1.7561   1.9747
     2.4373   2.4754   2.8167   2.8889   2.9272   3.0215   3.4720   3.6582
     3.7653   3.8495   3.8539   4.0134

          k = 0.0000 1.0479 0.0000 ( 78702 PWs)   bands (ev):

  -103.0787-103.0787-103.0634-103.0634-102.7495-102.7495 -67.8963 -67.8962
   -67.8958 -67.8957 -63.6392 -63.6391 -63.6297 -63.6296 -63.4886 -63.4884
   -63.4433 -63.4432 -63.3919 -63.3918 -63.3476 -63.3475 -63.2607 -63.2606
   -63.2517 -63.2513 -62.9935 -62.9933 -34.4598 -34.4584 -34.4567 -34.4561
   -34.4435 -34.4412 -34.4408 -34.4376 -34.3641 -34.3637 -34.3635 -34.3632
   -12.5704 -12.2872 -12.2076 -11.8571 -11.8007 -11.6067 -11.5486 -11.4490
   -11.4065 -11.2123  -5.7627  -5.5116  -5.3141  -5.2280  -5.0941  -5.0030
    -4.9855  -4.4424  -4.4209  -4.2023  -3.9838  -3.9686  -3.8518  -3.8364
    -3.7758  -3.6638  -3.6505  -3.4124  -3.2464  -3.0703  -3.0374  -2.9829
    -2.9651  -2.8927  -2.8015  -2.6035  -2.5544  -2.3867  -2.2991  -2.2816
    -2.2540  -2.1681  -2.1353  -2.0985  -1.9877  -1.9462  -1.8616  -1.8408
    -1.6821  -1.6756  -1.6255  -1.4635  -1.4512  -1.3111  -1.2588  -1.2388
    -1.1498  -0.9290  -0.8034  -0.7437  -0.7304  -0.6862  -0.6769  -0.6669
    -0.6348  -0.3904  -0.1091  -0.0098   0.0613   0.0803   0.9437   1.1549
     1.2209   1.3163   1.3508   1.4614   1.5467   1.5714   1.7601   1.9595
     2.3172   2.3218   2.4178   2.6044   2.8461   2.8635   3.0954   3.1559
     3.3165   3.5340   4.2472   4.4255

          k = 0.0000 1.5718 0.0000 ( 78818 PWs)   bands (ev):

  -103.0768-103.0768-103.0653-103.0652-102.7495-102.7495 -67.8944 -67.8943
   -67.8940 -67.8940 -63.6381 -63.6380 -63.6311 -63.6310 -63.4875 -63.4874
   -63.4550 -63.4549 -63.3811 -63.3811 -63.3496 -63.3496 -63.2605 -63.2605
   -63.2517 -63.2515 -62.9946 -62.9945 -34.4537 -34.4523 -34.4507 -34.4499
   -34.4381 -34.4362 -34.4358 -34.4334 -34.4181 -34.4172 -34.4164 -34.4154
   -12.0209 -11.7617 -11.7141 -11.5414 -11.4245 -11.3330 -11.1925 -11.0565
   -11.0501 -10.9561  -5.5142  -5.2139  -5.1962  -5.0941  -4.9323  -4.8197
    -4.7879  -4.6205  -4.5802  -4.4914  -4.2695  -4.2232  -4.1377  -4.0251
    -3.9019  -3.8055  -3.7334  -3.5911  -3.5898  -3.3470  -3.3258  -3.2758
    -3.2232  -2.9062  -2.8499  -2.8000  -2.7886  -2.7511  -2.5693  -2.5280
    -2.4721  -2.3987  -2.3543  -2.1457  -2.0497  -2.0424  -2.0116  -1.9211
    -1.8567  -1.8303  -1.7927  -1.5905  -1.5198  -1.3617  -1.3368  -1.2498
    -1.1446  -1.1245  -1.0284  -1.0227  -0.8956  -0.8628  -0.8484  -0.7804
    -0.6492  -0.5361  -0.3642  -0.2537  -0.2120  -0.1327   1.0737   1.1757
     1.2834   1.3273   1.3515   1.6417   1.7978   1.8176   1.9675   2.0576
     2.3014   2.3800   2.4126   2.6725   2.7488   3.0256   3.1409   3.2071
     3.5750   3.6032   4.2103   4.3578

          k = 0.0000 2.0958 0.0000 ( 78876 PWs)   bands (ev):

  -103.0746-103.0746-103.0674-103.0674-102.7495-102.7495 -67.8928 -67.8928
   -67.8926 -67.8925 -63.6367 -63.6366 -63.6326 -63.6325 -63.4851 -63.4850
   -63.4645 -63.4645 -63.3727 -63.3725 -63.3526 -63.3525 -63.2605 -63.2605
   -63.2516 -63.2514 -62.9954 -62.9954 -34.4673 -34.4665 -34.4664 -34.4655
   -34.4480 -34.4472 -34.4448 -34.4442 -34.4267 -34.4258 -34.4252 -34.4242
   -11.3912 -11.2479 -11.2024 -11.1575 -11.1091 -11.0790 -10.8565 -10.7874
   -10.7122 -10.6512  -5.9549  -5.9166  -5.8905  -5.7589  -5.3087  -5.2216
    -4.9849  -4.8872  -4.7804  -4.5768  -4.2494  -4.2265  -4.0742  -3.7734
    -3.7584  -3.6329  -3.6296  -3.5712  -3.3911  -3.3834  -3.3386  -3.2694
    -3.1515  -3.0827  -3.0670  -3.0559  -2.8380  -2.7237  -2.5867  -2.5375
    -2.5214  -2.4432  -2.3858  -2.1375  -2.0903  -2.0197  -2.0126  -1.9584
    -1.9422  -1.8900  -1.8323  -1.6663  -1.5286  -1.5232  -1.3864  -1.3296
    -1.2121  -1.1921  -1.1302  -1.1087  -1.0224  -1.0061  -0.9169  -0.8274
    -0.6659  -0.6162  -0.5496  -0.4554  -0.3531  -0.3368   0.8586   0.9552
     1.3417   1.4523   1.4904   1.5384   1.9775   2.1397   2.1892   2.3354
     2.5168   2.6899   2.7431   2.7837   2.9056   3.1003   3.5370   3.6424
     3.7303   3.8738   4.0528   4.1084

          k = 0.0000-2.6197 0.0000 ( 78852 PWs)   bands (ev):

  -103.0733-103.0733-103.0687-103.0687-102.7495-102.7494 -67.8922 -67.8922
   -67.8920 -67.8920 -63.6358 -63.6356 -63.6336 -63.6334 -63.4832 -63.4830
   -63.4689 -63.4686 -63.3688 -63.3688 -63.3545 -63.3544 -63.2605 -63.2605
   -63.2514 -63.2514 -62.9957 -62.9956 -34.4837 -34.4831 -34.4825 -34.4819
   -34.4461 -34.4456 -34.4430 -34.4426 -34.4245 -34.4240 -34.4231 -34.4227
   -11.0779 -11.0504 -10.9540 -10.9383 -10.9290 -10.8495 -10.8129 -10.7726
   -10.5549 -10.5208  -6.2827  -6.2482  -6.2202  -6.1853  -5.6336  -5.5567
    -5.0972  -5.0931  -4.8443  -4.8345  -3.9348  -3.9209  -3.8704  -3.8065
    -3.7531  -3.7167  -3.4281  -3.3979  -3.3940  -3.3018  -3.2840  -3.2656
    -3.2576  -3.1608  -3.0898  -2.9014  -2.8030  -2.7047  -2.6920  -2.6389
    -2.4144  -2.4118  -2.2493  -2.1727  -2.0948  -2.0845  -1.9474  -1.8890
    -1.8599  -1.8524  -1.8085  -1.7850  -1.6065  -1.5616  -1.5235  -1.4302
    -1.1987  -1.1375  -1.0780  -1.0725  -1.0642  -1.0329  -0.9537  -0.8860
    -0.7557  -0.7388  -0.6253  -0.6229  -0.4628  -0.3781   0.8566   0.8850
     1.3476   1.4302   1.5152   1.5463   1.9224   2.0274   2.2121   2.2429
     2.6866   2.7904   2.8545   2.8885   3.0842   3.1909   3.7619   3.8915
     4.0908   4.1287   4.1516   4.1941

          k =-0.5000 0.0000 0.0000 ( 78694 PWs)   bands (ev):

  -103.0804-103.0803-103.0618-103.0618-102.7496-102.7496 -67.8984 -67.8983
   -67.8978 -67.8977 -63.6401 -63.6401 -63.6286 -63.6285 -63.4891 -63.4891
   -63.4200 -63.4200 -63.4142 -63.4142 -63.3461 -63.3461 -63.2607 -63.2607
   -63.2516 -63.2516 -62.9924 -62.9924 -34.4662 -34.4662 -34.4637 -34.4637
   -34.4513 -34.4513 -34.4454 -34.4454 -34.3012 -34.3012 -34.3007 -34.3007
   -12.9661 -12.9660 -12.3678 -12.3678 -12.0772 -12.0772 -11.8311 -11.8310
   -11.5582 -11.5582  -6.1056  -6.1056  -5.7881  -5.7880  -5.4272  -5.4272
    -5.0577  -5.0576  -4.5829  -4.5829  -3.8966  -3.8966  -3.6854  -3.6854
    -3.4634  -3.4633  -3.1936  -3.1936  -3.1348  -3.1347  -2.7690  -2.7690
    -2.5469  -2.5469  -2.3433  -2.3433  -2.2084  -2.2084  -2.0276  -2.0276
    -1.8877  -1.8876  -1.8690  -1.8690  -1.7970  -1.7970  -1.6349  -1.6349
    -1.5098  -1.5098  -1.3450  -1.3450  -1.1397  -1.1396  -0.9166  -0.9165
    -0.8433  -0.8433  -0.4995  -0.4995  -0.3159  -0.3159  -0.2418  -0.2418
     0.0484   0.0484   0.3089   0.3089   0.3625   0.3625   0.9694   0.9694
     1.2465   1.2465   1.6320   1.6320   1.6636   1.6636   2.2032   2.2032
     2.7483   2.7483   2.7613   2.7613   3.3959   3.3959   3.7590   3.7591
     3.9097   3.9097   4.0623   4.0623

          k =-0.5000 0.5239 0.0000 ( 78694 PWs)   bands (ev):

  -103.0799-103.0799-103.0622-103.0622-102.7496-102.7495 -67.8978 -67.8978
   -67.8972 -67.8972 -63.6399 -63.6399 -63.6289 -63.6289 -63.4890 -63.4890
   -63.4306 -63.4306 -63.4038 -63.4038 -63.3465 -63.3464 -63.2607 -63.2607
   -63.2516 -63.2516 -62.9926 -62.9926 -34.4643 -34.4642 -34.4616 -34.4616
   -34.4490 -34.4489 -34.4435 -34.4435 -34.3186 -34.3186 -34.3181 -34.3181
   -12.8425 -12.8425 -12.2566 -12.2566 -11.9996 -11.9996 -11.7405 -11.7405
   -11.4845 -11.4845  -5.9851  -5.9850  -5.6608  -5.6608  -5.3027  -5.3027
    -4.9456  -4.9456  -4.5052  -4.5052  -3.9290  -3.9290  -3.6934  -3.6934
    -3.4285  -3.4285  -3.2820  -3.2820  -3.1939  -3.1938  -2.7611  -2.7611
    -2.5672  -2.5672  -2.5269  -2.5269  -2.3637  -2.3637  -2.0519  -2.0519
    -1.9205  -1.9205  -1.8743  -1.8743  -1.7976  -1.7976  -1.7025  -1.7025
    -1.6307  -1.6307  -1.4425  -1.4425  -1.1613  -1.1612  -1.0019  -1.0019
    -0.8676  -0.8676  -0.6892  -0.6892  -0.4455  -0.4455  -0.3691  -0.3691
    -0.1604  -0.1604   0.0792   0.0792   0.4984   0.4984   0.7203   0.7203
     1.3947   1.3947   1.5724   1.5725   1.6581   1.6581   1.7958   1.7959
     2.4564   2.4564   2.8205   2.8206   2.9514   2.9515   3.5956   3.5956
     3.7739   3.7739   4.0115   4.0115

          k =-0.5000 1.0479 0.0000 ( 78652 PWs)   bands (ev):

  -103.0787-103.0787-103.0634-103.0634-102.7495-102.7495 -67.8963 -67.8962
   -67.8958 -67.8957 -63.6391 -63.6391 -63.6297 -63.6297 -63.4885 -63.4885
   -63.4432 -63.4431 -63.3918 -63.3918 -63.3475 -63.3475 -63.2606 -63.2605
   -63.2515 -63.2515 -62.9933 -62.9933 -34.4592 -34.4592 -34.4563 -34.4563
   -34.4429 -34.4429 -34.4387 -34.4386 -34.3640 -34.3639 -34.3633 -34.3633
   -12.4861 -12.4861 -11.9422 -11.9422 -11.7804 -11.7804 -11.4889 -11.4888
   -11.2754 -11.2754  -5.6648  -5.6648  -5.3268  -5.3267  -4.9687  -4.9686
    -4.7057  -4.7057  -4.3576  -4.3576  -4.0627  -4.0627  -3.8327  -3.8326
    -3.4805  -3.4805  -3.4340  -3.4340  -3.3764  -3.3763  -3.0602  -3.0602
    -2.9402  -2.9402  -2.6914  -2.6914  -2.4906  -2.4906  -2.2709  -2.2709
    -2.1629  -2.1629  -2.1291  -2.1291  -1.9450  -1.9450  -1.8476  -1.8476
    -1.7257  -1.7257  -1.5612  -1.5612  -1.3212  -1.3212  -1.2323  -1.2323
    -1.0492  -1.0492  -0.8646  -0.8646  -0.7507  -0.7506  -0.5968  -0.5968
    -0.4856  -0.4856  -0.0453  -0.0452   0.0839   0.0839   1.0120   1.0120
     1.3085   1.3085   1.4869   1.4869   1.5686   1.5686   1.8754   1.8754
     2.0820   2.0820   2.5386   2.5386   2.8736   2.8736   3.1602   3.1602
     3.3877   3.3877   4.3447   4.3447

          k =-0.5000 1.5718 0.0000 ( 78758 PWs)   bands (ev):

  -103.0768-103.0768-103.0653-103.0652-102.7495-102.7495 -67.8944 -67.8943
   -67.8940 -67.8940 -63.6380 -63.6380 -63.6310 -63.6310 -63.4874 -63.4874
   -63.4549 -63.4549 -63.3811 -63.3811 -63.3496 -63.3495 -63.2605 -63.2605
   -63.2515 -63.2515 -62.9945 -62.9945 -34.4531 -34.4531 -34.4502 -34.4502
   -34.4375 -34.4375 -34.4342 -34.4342 -34.4178 -34.4178 -34.4158 -34.4158
   -11.9458 -11.9458 -11.5085 -11.5085 -11.4524 -11.4524 -11.1496 -11.1496
   -10.9691 -10.9691  -5.3909  -5.3908  -5.0889  -5.0889  -4.9776  -4.9776
    -4.6894  -4.6894  -4.4971  -4.4971  -4.2732  -4.2732  -4.0112  -4.0112
    -3.8237  -3.8236  -3.6957  -3.6957  -3.5006  -3.5006  -3.3052  -3.3052
    -2.9776  -2.9776  -2.9158  -2.9158  -2.7644  -2.7644  -2.5871  -2.5870
    -2.4318  -2.4317  -2.2149  -2.2149  -2.0580  -2.0580  -1.9521  -1.9521
    -1.8614  -1.8614  -1.7121  -1.7121  -1.3966  -1.3966  -1.2720  -1.2720
    -1.1577  -1.1577  -1.0120  -1.0119  -0.9183  -0.9182  -0.7703  -0.7703
    -0.6231  -0.6231  -0.3115  -0.3115  -0.1613  -0.1613   1.0725   1.0725
     1.4627   1.4627   1.5586   1.5586   1.7483   1.7483   1.9774   1.9775
     2.2024   2.2024   2.5256   2.5256   2.9221   2.9221   3.2736   3.2736
     3.4870   3.4871   4.4368   4.4368

          k =-0.5000 2.0958 0.0000 ( 78872 PWs)   bands (ev):

  -103.0746-103.0746-103.0674-103.0674-102.7495-102.7495 -67.8928 -67.8928
   -67.8926 -67.8925 -63.6367 -63.6367 -63.6325 -63.6325 -63.4850 -63.4850
   -63.4645 -63.4645 -63.3726 -63.3726 -63.3525 -63.3525 -63.2605 -63.2605
   -63.2515 -63.2515 -62.9954 -62.9954 -34.4671 -34.4671 -34.4658 -34.4658
   -34.4476 -34.4476 -34.4445 -34.4444 -34.4264 -34.4264 -34.4246 -34.4246
   -11.3388 -11.3387 -11.1842 -11.1842 -11.0556 -11.0556 -10.8503 -10.8503
   -10.6684 -10.6684  -5.9690  -5.9689  -5.7773  -5.7773  -5.2882  -5.2882
    -4.9517  -4.9517  -4.6578  -4.6578  -4.2467  -4.2467  -3.9250  -3.9249
    -3.7654  -3.7654  -3.5842  -3.5842  -3.3540  -3.3540  -3.2602  -3.2602
    -3.1055  -3.1055  -2.9840  -2.9840  -2.8619  -2.8619  -2.6278  -2.6278
    -2.4449  -2.4449  -2.2114  -2.2113  -2.0979  -2.0978  -2.0097  -2.0097
    -1.9192  -1.9192  -1.7556  -1.7556  -1.4710  -1.4710  -1.3772  -1.3771
    -1.1942  -1.1942  -1.1355  -1.1355  -1.0248  -1.0248  -0.8086  -0.8086
    -0.7411  -0.7411  -0.4402  -0.4402  -0.3670  -0.3670   0.9014   0.9015
     1.4065   1.4066   1.7148   1.7149   1.8430   1.8431   2.3432   2.3432
     2.5792   2.5793   2.6470   2.6471   3.0197   3.0197   3.5989   3.5989
     3.8437   3.8438   4.0751   4.0751

          k =-0.5000-2.6197 0.0000 ( 78916 PWs)   bands (ev):

  -103.0733-103.0733-103.0687-103.0687-102.7495-102.7495 -67.8922 -67.8922
   -67.8920 -67.8920 -63.6358 -63.6358 -63.6336 -63.6336 -63.4832 -63.4832
   -63.4689 -63.4689 -63.3687 -63.3687 -63.3545 -63.3544 -63.2604 -63.2604
   -63.2515 -63.2515 -62.9958 -62.9958 -34.4835 -34.4834 -34.4822 -34.4822
   -34.4459 -34.4458 -34.4428 -34.4428 -34.4243 -34.4243 -34.4229 -34.4228
   -11.0657 -11.0656 -10.9511 -10.9511 -10.8853 -10.8853 -10.7922 -10.7922
   -10.5357 -10.5357  -6.3247  -6.3247  -6.1307  -6.1307  -5.6046  -5.6045
    -5.0889  -5.0889  -4.8545  -4.8545  -3.9215  -3.9215  -3.8463  -3.8462
    -3.6767  -3.6767  -3.5142  -3.5142  -3.3687  -3.3687  -3.3156  -3.3156
    -3.1899  -3.1899  -2.8655  -2.8655  -2.7719  -2.7718  -2.6778  -2.6777
    -2.3310  -2.3309  -2.2229  -2.2228  -2.1712  -2.1711  -1.9174  -1.9174
    -1.8458  -1.8457  -1.7909  -1.7909  -1.6278  -1.6278  -1.4100  -1.4099
    -1.2159  -1.2158  -1.1116  -1.1115  -1.0207  -1.0206  -0.9235  -0.9235
    -0.7582  -0.7582  -0.6143  -0.6143  -0.4052  -0.4052   0.8762   0.8762
     1.3747   1.3748   1.6796   1.6796   1.7809   1.7809   2.4549   2.4549
     2.5321   2.5322   2.8163   2.8163   3.1558   3.1558   3.9402   3.9402
     4.0645   4.0645   4.2248   4.2248

     the Fermi energy is     0.5627 ev

!    total energy              =   -9109.73388345 Ry
     total all-electron energy =     -9109.733883 Ry
     estimated scf accuracy    <          7.6E-09 Ry
     smearing contrib. (-TS)   =      -0.00000391 Ry
     internal energy E=F+TS    =   -9109.73387953 Ry

     The total energy is F=E-TS. E is the sum of the following terms:
     one-electron contribution =  -17543.10592699 Ry
     hartree contribution      =    8633.42589048 Ry
     xc contribution           =    -366.03649234 Ry
     ewald contribution        =    6433.78740586 Ry
     one-center paw contrib.   =   -6267.80475655 Ry

     convergence has been achieved in  20 iterations

     negative rho (up, down):  6.572E-02 0.000E+00

     Forces acting on atoms (cartesian axes, Ry/au):

     atom    1 type  1   force =     0.00985849    0.03532280   -0.01662485
     atom    2 type  1   force =     0.00984282   -0.03531686    0.01661583
     atom    3 type  1   force =    -0.00988646    0.03532412   -0.01660615
     atom    4 type  1   force =    -0.00983739   -0.03531396    0.01658952
     atom    5 type  2   force =    -0.00942738    0.03347167   -0.01334354
     atom    6 type  2   force =    -0.00945390   -0.03350473    0.01332387
     atom    7 type  2   force =     0.00941363    0.03346498   -0.01335945
     atom    8 type  2   force =     0.00943352   -0.03349451    0.01330869
     atom    9 type  2   force =     0.00005877    0.02447366   -0.02325609
     atom   10 type  2   force =     0.00005037   -0.02443343    0.02323635
     atom   11 type  3   force =     0.00944936   -0.02565147   -0.04023755
     atom   12 type  3   force =     0.00945588    0.02565445    0.04025940
     atom   13 type  3   force =    -0.00238199    0.01649243   -0.02737595
     atom   14 type  3   force =    -0.00237842   -0.01649244    0.02740050
     atom   15 type  3   force =    -0.00941163   -0.02565054   -0.04023226
     atom   16 type  3   force =    -0.00941736    0.02565420    0.04025502
     atom   17 type  3   force =     0.00235964    0.01649254   -0.02737191
     atom   18 type  3   force =     0.00235168   -0.01649291    0.02739534
     atom   19 type  3   force =    -0.00003852    0.01991105   -0.03327665
     atom   20 type  3   force =    -0.00004110   -0.01991104    0.03329988

     Total force =     0.175776     Total SCF correction =     0.000297


     Computing stress (Cartesian axis) and pressure


     negative rho (up, down):  6.572E-02 0.000E+00
          total   stress  (Ry/bohr**3)                   (kbar)     P=       22.70
   0.00010422  -0.00000000  -0.00000000           15.33       -0.00       -0.00
  -0.00000000   0.00026619  -0.00002243           -0.00       39.16       -3.30
  -0.00000000  -0.00002243   0.00009255           -0.00       -3.30       13.61

     Energy error            =      8.1E-02 Ry
     Gradient error          =      4.0E-02 Ry/Bohr

     number of scf cycles    =   2
     number of bfgs steps    =   1

     energy             old  =   -9109.6530342195 Ry
     energy             new  =   -9109.7338834485 Ry

     CASE: energy            _new < energy            _old

     new trust radius        =       0.0912622904 bohr
     new conv_thr            =       0.0000000040 Ry


ATOMIC_POSITIONS (angstrom)
Ta              15.4118826020        0.9864481212       12.4098064490
Ta               6.5915768649        2.6732446988       12.6260206541
Ta               2.2450639671        0.9864562074       12.4096630808
Ta              11.0653995655        2.6732422984       12.6261466586
Ni              12.8434193132        0.9888231433       11.7376648493
Ni               4.0230875740        2.6708525080       13.2981432921
Ni               4.8134869244        0.9888001608       11.7373799856
Ni              13.6337885677        2.6708776551       13.2983937440
Ni               8.8284236430        0.9605978924       12.3249233205
Ni               0.0081543210        2.6991396992       12.7108807795
Te              14.2317005906        2.6918931398       10.4622994679
Te               5.4113902000        0.9677993647       14.5735502035
Te              10.5886032090        0.9474119206       10.4650226515
Te               1.7683233715        2.7122769379       14.5708295303
Te               3.4250859774        2.6918949070       10.4620780005
Te              12.2453802585        0.9677976310       14.5737686189
Te               7.0684000077        0.9474115638       10.4648657935
Te              15.8886727587        2.7122768741       14.5709956006
Te               0.0082333429        0.9518606489       10.7784981810
Te               8.8284893042        2.7078270817       14.2573201385



     Writing config-only to output data dir /ddn/data/physics/eamoujaes/2D-Ta2Ni3Te5/ELASTIC/C22/OUT/ta2ni3te5.save/ :
     XML data file
     NEW-OLD atomic charge density approx. for the potential

     negative rho (up, down):  6.392E-02 0.000E+00

     total cpu time spent up to now is     1952.3 secs

     Self-consistent Calculation

     iteration #  1     ecut=    60.00 Ry     beta= 0.20
     Davidson diagonalization with overlap
     c_bands:  1 eigenvalues not converged
     c_bands:  1 eigenvalues not converged
     c_bands:  2 eigenvalues not converged
     c_bands:  2 eigenvalues not converged
     ethr =  1.00E-06,  avg # of iterations = 16.3

     negative rho (up, down):  6.410E-02 0.000E+00

     total cpu time spent up to now is     1994.9 secs

     total energy              =   -9109.67126539 Ry
     estimated scf accuracy    <       0.27243002 Ry

     iteration #  2     ecut=    60.00 Ry     beta= 0.20
     Davidson diagonalization with overlap
     ethr =  1.24E-04,  avg # of iterations =  3.2

     negative rho (up, down):  6.427E-02 0.000E+00

     total cpu time spent up to now is     2031.9 secs

     total energy              =   -9109.71104877 Ry
     estimated scf accuracy    <       1.05861876 Ry

     iteration #  3     ecut=    60.00 Ry     beta= 0.20
     Davidson diagonalization with overlap
     ethr =  1.24E-04,  avg # of iterations =  2.0

     negative rho (up, down):  6.433E-02 0.000E+00

     total cpu time spent up to now is     2068.4 secs

     total energy              =   -9109.77331893 Ry
     estimated scf accuracy    <       0.07476894 Ry

     iteration #  4     ecut=    60.00 Ry     beta= 0.20
     Davidson diagonalization with overlap
     ethr =  3.40E-05,  avg # of iterations =  2.0

     negative rho (up, down):  6.455E-02 0.000E+00

     total cpu time spent up to now is     2104.8 secs

     total energy              =   -9109.77489877 Ry
     estimated scf accuracy    <       0.01205064 Ry

     iteration #  5     ecut=    60.00 Ry     beta= 0.20
     Davidson diagonalization with overlap
     ethr =  5.48E-06,  avg # of iterations =  2.3

     negative rho (up, down):  6.487E-02 0.000E+00

     total cpu time spent up to now is     2141.7 secs

     total energy              =   -9109.77254643 Ry
     estimated scf accuracy    <       0.00669638 Ry

     iteration #  6     ecut=    60.00 Ry     beta= 0.20
     Davidson diagonalization with overlap
     ethr =  3.04E-06,  avg # of iterations =  2.0

     negative rho (up, down):  6.507E-02 0.000E+00

     total cpu time spent up to now is     2178.4 secs

     total energy              =   -9109.77224391 Ry
     estimated scf accuracy    <       0.00211496 Ry

     iteration #  7     ecut=    60.00 Ry     beta= 0.20
     Davidson diagonalization with overlap
     c_bands:  1 eigenvalues not converged
     ethr =  9.61E-07,  avg # of iterations =  3.6

     negative rho (up, down):  6.510E-02 0.000E+00

     total cpu time spent up to now is     2215.7 secs

     total energy              =   -9109.77245980 Ry
     estimated scf accuracy    <       0.00009267 Ry

     iteration #  8     ecut=    60.00 Ry     beta= 0.20
     Davidson diagonalization with overlap
     ethr =  4.21E-08,  avg # of iterations =  5.2

     negative rho (up, down):  6.513E-02 0.000E+00

     total cpu time spent up to now is     2253.1 secs

     total energy              =   -9109.77245824 Ry
     estimated scf accuracy    <       0.00006292 Ry

     iteration #  9     ecut=    60.00 Ry     beta= 0.20
     Davidson diagonalization with overlap
     ethr =  2.86E-08,  avg # of iterations =  2.0

     negative rho (up, down):  6.515E-02 0.000E+00

     total cpu time spent up to now is     2290.3 secs

     total energy              =   -9109.77245860 Ry
     estimated scf accuracy    <       0.00013094 Ry

     iteration # 10     ecut=    60.00 Ry     beta= 0.20
     Davidson diagonalization with overlap
     ethr =  2.86E-08,  avg # of iterations =  1.0

     negative rho (up, down):  6.522E-02 0.000E+00

     total cpu time spent up to now is     2327.0 secs

     total energy              =   -9109.77243602 Ry
     estimated scf accuracy    <       0.00013372 Ry

     iteration # 11     ecut=    60.00 Ry     beta= 0.20
     Davidson diagonalization with overlap
     ethr =  2.86E-08,  avg # of iterations =  2.0

     negative rho (up, down):  6.522E-02 0.000E+00

     total cpu time spent up to now is     2363.6 secs

     total energy              =   -9109.77244072 Ry
     estimated scf accuracy    <       0.00001490 Ry

     iteration # 12     ecut=    60.00 Ry     beta= 0.20
     Davidson diagonalization with overlap
     ethr =  6.77E-09,  avg # of iterations =  2.0

     negative rho (up, down):  6.521E-02 0.000E+00

     total cpu time spent up to now is     2400.5 secs

     total energy              =   -9109.77244209 Ry
     estimated scf accuracy    <       0.00000377 Ry

     iteration # 13     ecut=    60.00 Ry     beta= 0.20
     Davidson diagonalization with overlap
     ethr =  1.71E-09,  avg # of iterations =  2.0

     negative rho (up, down):  6.521E-02 0.000E+00

     total cpu time spent up to now is     2437.4 secs

     total energy              =   -9109.77244279 Ry
     estimated scf accuracy    <       0.00000371 Ry

     iteration # 14     ecut=    60.00 Ry     beta= 0.20
     Davidson diagonalization with overlap
     ethr =  1.69E-09,  avg # of iterations =  1.1

     negative rho (up, down):  6.521E-02 0.000E+00

     total cpu time spent up to now is     2474.0 secs

     total energy              =   -9109.77244279 Ry
     estimated scf accuracy    <       0.00000117 Ry

     iteration # 15     ecut=    60.00 Ry     beta= 0.20
     Davidson diagonalization with overlap
     ethr =  5.31E-10,  avg # of iterations =  1.0

     negative rho (up, down):  6.521E-02 0.000E+00

     total cpu time spent up to now is     2510.7 secs

     total energy              =   -9109.77244262 Ry
     estimated scf accuracy    <       0.00000040 Ry

     iteration # 16     ecut=    60.00 Ry     beta= 0.20
     Davidson diagonalization with overlap
     ethr =  1.83E-10,  avg # of iterations =  2.0

     negative rho (up, down):  6.520E-02 0.000E+00

     total cpu time spent up to now is     2547.7 secs

     total energy              =   -9109.77244268 Ry
     estimated scf accuracy    <       0.00000010 Ry

     iteration # 17     ecut=    60.00 Ry     beta= 0.20
     Davidson diagonalization with overlap
     ethr =  4.52E-11,  avg # of iterations =  2.7

     negative rho (up, down):  6.520E-02 0.000E+00

     total cpu time spent up to now is     2584.5 secs

     total energy              =   -9109.77244268 Ry
     estimated scf accuracy    <       0.00000004 Ry

     iteration # 18     ecut=    60.00 Ry     beta= 0.20
     Davidson diagonalization with overlap
     ethr =  1.70E-11,  avg # of iterations =  2.8

     negative rho (up, down):  6.520E-02 0.000E+00

     total cpu time spent up to now is     2621.6 secs

     total energy              =   -9109.77244268 Ry
     estimated scf accuracy    <       0.00000006 Ry

     iteration # 19     ecut=    60.00 Ry     beta= 0.20
     Davidson diagonalization with overlap
     ethr =  1.70E-11,  avg # of iterations =  1.3

     negative rho (up, down):  6.520E-02 0.000E+00

     total cpu time spent up to now is     2658.2 secs

     total energy              =   -9109.77244268 Ry
     estimated scf accuracy    <          8.2E-09 Ry

     iteration # 20     ecut=    60.00 Ry     beta= 0.20
     Davidson diagonalization with overlap
     ethr =  3.72E-12,  avg # of iterations =  4.3

     negative rho (up, down):  6.520E-02 0.000E+00

     total cpu time spent up to now is     2695.2 secs

     End of self-consistent calculation

          k = 0.0000 0.0000 0.0000 ( 78593 PWs)   bands (ev):

  -103.0334-103.0333-103.0175-103.0175-102.7256-102.7254 -67.9330 -67.9330
   -67.9325 -67.9325 -63.5884 -63.5883 -63.5784 -63.5780 -63.4274 -63.4271
   -63.3786 -63.3785 -63.3624 -63.3623 -63.3117 -63.3116 -63.2400 -63.2398
   -63.2322 -63.2321 -62.9546 -62.9544 -34.4868 -34.4855 -34.4837 -34.4832
   -34.4679 -34.4651 -34.4641 -34.4604 -34.3164 -34.3162 -34.3160 -34.3158
   -12.9562 -12.6438 -12.5833 -12.1148 -12.1014 -11.8935 -11.7681 -11.7472
   -11.6868 -11.4237  -6.1636  -5.8882  -5.7207  -5.5929  -5.4522  -5.4179
    -5.3867  -4.6900  -4.5801  -4.1355  -4.0440  -3.7178  -3.7064  -3.6734
    -3.4963  -3.4097  -3.0709  -3.0397  -2.9396  -2.7696  -2.6444  -2.6258
    -2.5663  -2.4906  -2.2881  -2.2208  -2.1890  -2.1568  -2.1506  -2.0077
    -1.8482  -1.8374  -1.8224  -1.7703  -1.7500  -1.6876  -1.6871  -1.6644
    -1.5808  -1.2702  -1.2571  -1.2229  -1.1851  -1.1015  -0.9591  -0.9420
    -0.9028  -0.7964  -0.6564  -0.3495  -0.2801  -0.2696  -0.2373  -0.0900
     0.0808   0.1903   0.3092   0.3377   0.3712   0.4256   0.8073   0.9395
     1.0932   1.4083   1.4930   1.5968   1.7434   1.8018   2.1273   2.2450
     2.4301   2.7781   2.8018   2.9815   3.2239   3.4784   3.5834   3.7698
     3.8958   3.9340   4.0011   4.0922

          k = 0.0000 0.5239 0.0000 ( 78653 PWs)   bands (ev):

  -103.0330-103.0329-103.0179-103.0179-102.7256-102.7254 -67.9325 -67.9324
   -67.9320 -67.9319 -63.5884 -63.5883 -63.5787 -63.5784 -63.4273 -63.4272
   -63.3844 -63.3843 -63.3568 -63.3567 -63.3121 -63.3121 -63.2401 -63.2399
   -63.2323 -63.2322 -62.9548 -62.9546 -34.4849 -34.4836 -34.4818 -34.4812
   -34.4655 -34.4629 -34.4620 -34.4586 -34.3335 -34.3335 -34.3332 -34.3331
   -12.8325 -12.5227 -12.4684 -12.0349 -12.0004 -11.8067 -11.6910 -11.6556
   -11.5949 -11.3537  -6.0402  -5.7705  -5.5880  -5.4478  -5.3458  -5.3156
    -5.2568  -4.5790  -4.4788  -4.0687  -4.0062  -3.7630  -3.7120  -3.7007
    -3.4799  -3.4366  -3.2025  -3.1089  -2.9071  -2.8308  -2.7077  -2.6284
    -2.5279  -2.4771  -2.4670  -2.4498  -2.3595  -2.2772  -2.0525  -2.0000
    -1.9925  -1.8901  -1.8406  -1.7961  -1.7549  -1.7122  -1.7097  -1.6500
    -1.6313  -1.4631  -1.4158  -1.3346  -1.2192  -1.1109  -1.0453  -0.9517
    -0.9332  -0.8813  -0.6754  -0.5072  -0.4490  -0.3871  -0.3668  -0.3010
    -0.1561  -0.1456   0.1067   0.1435   0.4178   0.5071   0.6453   0.8275
     1.1503   1.4435   1.4986   1.5201   1.6029   1.6650   1.7449   1.9865
     2.3958   2.4761   2.7948   2.8567   2.9114   3.0030   3.4555   3.6206
     3.7235   3.8172   3.8250   3.9906

          k = 0.0000 1.0479 0.0000 ( 78702 PWs)   bands (ev):

  -103.0318-103.0318-103.0190-103.0190-102.7256-102.7254 -67.9309 -67.9309
   -67.9305 -67.9305 -63.5876 -63.5875 -63.5794 -63.5792 -63.4274 -63.4272
   -63.3941 -63.3941 -63.3476 -63.3475 -63.3130 -63.3129 -63.2402 -63.2397
   -63.2323 -63.2321 -62.9557 -62.9555 -34.4800 -34.4786 -34.4768 -34.4760
   -34.4593 -34.4573 -34.4564 -34.4538 -34.3784 -34.3780 -34.3780 -34.3777
   -12.4749 -12.1740 -12.1387 -11.8088 -11.7217 -11.5735 -11.4644 -11.3889
   -11.3378 -11.1599  -5.7148  -5.4520  -5.2389  -5.1409  -5.0411  -4.9755
    -4.9176  -4.3251  -4.3186  -4.0996  -3.8901  -3.8454  -3.7820  -3.7412
    -3.6542  -3.5756  -3.5663  -3.3208  -3.1655  -3.0049  -2.9484  -2.9049
    -2.8640  -2.7981  -2.7193  -2.5312  -2.4783  -2.3056  -2.2886  -2.2244
    -2.1782  -2.0964  -2.0955  -2.0674  -1.9352  -1.8723  -1.8159  -1.7541
    -1.6549  -1.6519  -1.5996  -1.4090  -1.4036  -1.2930  -1.2202  -1.2098
    -1.1507  -0.8940  -0.7730  -0.7557  -0.7058  -0.6808  -0.6621  -0.6362
    -0.6019  -0.4157  -0.0656  -0.0329   0.0540   0.0623   0.9635   1.1303
     1.1677   1.2632   1.3237   1.4586   1.4824   1.4915   1.7308   1.9302
     2.3103   2.3212   2.3669   2.5558   2.8031   2.8500   3.0688   3.0972
     3.2717   3.4800   4.2149   4.3922

          k = 0.0000 1.5718 0.0000 ( 78818 PWs)   bands (ev):

  -103.0300-103.0300-103.0207-103.0207-102.7255-102.7254 -67.9291 -67.9291
   -67.9288 -67.9288 -63.5867 -63.5865 -63.5807 -63.5805 -63.4270 -63.4269
   -63.4037 -63.4036 -63.3385 -63.3384 -63.3149 -63.3148 -63.2401 -63.2399
   -63.2322 -63.2320 -62.9568 -62.9566 -34.4739 -34.4726 -34.4708 -34.4699
   -34.4516 -34.4504 -34.4496 -34.4478 -34.4332 -34.4327 -34.4324 -34.4319
   -11.9299 -11.6506 -11.6480 -11.4823 -11.3419 -11.2806 -11.1164 -10.9873
   -10.9858 -10.8949  -5.4432  -5.1410  -5.0768  -4.9910  -4.8108  -4.7571
    -4.6928  -4.5464  -4.4849  -4.3880  -4.2185  -4.1638  -4.0621  -3.9397
    -3.8270  -3.7206  -3.6758  -3.5380  -3.5375  -3.2720  -3.2339  -3.1971
    -3.1414  -2.8682  -2.8081  -2.7703  -2.7477  -2.7012  -2.4892  -2.4215
    -2.3892  -2.3372  -2.2792  -2.0688  -1.9650  -1.9615  -1.9505  -1.8457
    -1.8286  -1.7961  -1.7574  -1.5323  -1.4691  -1.3405  -1.2885  -1.2268
    -1.1570  -1.0917  -1.0129  -0.9833  -0.8998  -0.8290  -0.8048  -0.7618
    -0.6044  -0.5789  -0.3140  -0.2958  -0.2066  -0.1417   1.0601   1.1638
     1.2686   1.2917   1.3167   1.6071   1.7782   1.7812   1.9314   2.0143
     2.2846   2.3319   2.3768   2.6027   2.7050   2.9979   3.0934   3.1322
     3.5147   3.5583   4.1825   4.2420

          k = 0.0000 2.0958 0.0000 ( 78876 PWs)   bands (ev):

  -103.0278-103.0277-103.0229-103.0229-102.7255-102.7254 -67.9276 -67.9275
   -67.9274 -67.9273 -63.5853 -63.5851 -63.5820 -63.5820 -63.4250 -63.4249
   -63.4120 -63.4119 -63.3307 -63.3306 -63.3180 -63.3179 -63.2400 -63.2398
   -63.2322 -63.2320 -62.9576 -62.9575 -34.4779 -34.4774 -34.4769 -34.4764
[...]
     2.2607   2.3357   2.3432   2.4804   2.7902   2.8267   2.9276   3.0184
     3.2510   3.4205   4.1646   4.3279

          k = 0.0000 1.5718 0.0000 ( 78818 PWs)   bands (ev):

  -102.9996-102.9996-102.9915-102.9915-102.7183-102.7182 -67.9791 -67.9791
   -67.9789 -67.9788 -63.5525 -63.5523 -63.5466 -63.5465 -63.3728 -63.3727
   -63.3697 -63.3697 -63.3049 -63.3048 -63.3010 -63.3010 -63.2423 -63.2421
   -63.2280 -63.2279 -62.9323 -62.9322 -34.5055 -34.5052 -34.5037 -34.5036
   -34.4754 -34.4736 -34.4727 -34.4702 -34.4659 -34.4656 -34.4651 -34.4648
   -11.8259 -11.5918 -11.4953 -11.4260 -11.2420 -11.2320 -11.0129 -10.9432
   -10.9063 -10.8432  -5.3674  -5.0405  -4.9583  -4.8293  -4.6904  -4.6058
    -4.5236  -4.4390  -4.3951  -4.2313  -4.1886  -4.0689  -4.0132  -3.8525
    -3.7472  -3.6599  -3.6507  -3.5184  -3.4593  -3.2094  -3.1614  -3.1216
    -3.0858  -2.8205  -2.7930  -2.7499  -2.6335  -2.6231  -2.4251  -2.3121
    -2.3015  -2.2926  -2.1993  -1.9742  -1.9113  -1.8634  -1.8187  -1.7875
    -1.7590  -1.7466  -1.7348  -1.4564  -1.4325  -1.3206  -1.2611  -1.1742
    -1.1539  -1.0688  -1.0145  -0.9765  -0.9335  -0.8437  -0.8362  -0.7959
    -0.6204  -0.5917  -0.3637  -0.2645  -0.2155  -0.1563   1.0484   1.0964
     1.1821   1.2478   1.2681   1.5548   1.7369   1.7522   1.8024   1.9570
     2.2817   2.3050   2.3123   2.4448   2.6436   2.9185   2.9789   3.0262
     3.4297   3.5221   4.1100   4.1114

          k = 0.0000 2.0958 0.0000 ( 78876 PWs)   bands (ev):

  -102.9976-102.9976-102.9934-102.9934-102.7183-102.7182 -67.9776 -67.9776
   -67.9775 -67.9774 -63.5511 -63.5509 -63.5479 -63.5479 -63.3748 -63.3748
   -63.3718 -63.3718 -63.3034 -63.3033 -63.3001 -63.3000 -63.2422 -63.2421
   -63.2280 -63.2279 -62.9331 -62.9330 -34.5094 -34.5092 -34.5084 -34.5082
   -34.5001 -34.5000 -34.4983 -34.4982 -34.4693 -34.4684 -34.4669 -34.4659
   -11.2307 -11.1604 -10.9895 -10.9624 -10.9261 -10.8666 -10.6923 -10.6240
   -10.6051 -10.5367  -5.6930  -5.6690  -5.6285  -5.5353  -5.1213  -5.0480
    -4.8256  -4.6828  -4.6612  -4.3898  -4.1281  -4.1115  -3.9993  -3.7551
    -3.6524  -3.5748  -3.4405  -3.4336  -3.2916  -3.2751  -3.1983  -3.1310
    -3.1190  -3.0469  -2.9850  -2.9612  -2.5886  -2.5300  -2.3925  -2.3820
    -2.3600  -2.2891  -2.1912  -2.0658  -1.9265  -1.9155  -1.8993  -1.8487
    -1.7460  -1.7202  -1.7098  -1.4757  -1.4667  -1.4645  -1.2833  -1.2347
    -1.1567  -1.1178  -1.0330  -1.0226  -1.0037  -0.9740  -0.9550  -0.8186
    -0.6150  -0.5953  -0.5474  -0.4920  -0.3041  -0.3015   0.8113   0.9106
     1.1395   1.4060   1.4151   1.4427   1.8227   2.0554   2.1101   2.2592
     2.4634   2.4769   2.5378   2.6578   2.7580   2.9296   3.3722   3.5205
     3.6392   3.7552   3.8229   3.9042

          k = 0.0000-2.6197 0.0000 ( 78852 PWs)   bands (ev):

  -102.9955-102.9955-102.9955-102.9955-102.7183-102.7182 -67.9770 -67.9770
   -67.9770 -67.9769 -63.5496 -63.5494 -63.5493 -63.5492 -63.3755 -63.3753
   -63.3725 -63.3723 -63.3029 -63.3028 -63.2999 -63.2998 -63.2421 -63.2420
   -63.2280 -63.2279 -62.9334 -62.9333 -34.5256 -34.5255 -34.5244 -34.5244
   -34.4982 -34.4982 -34.4964 -34.4964 -34.4668 -34.4667 -34.4646 -34.4645
   -10.9736 -10.9718 -10.7071 -10.7037 -10.6775 -10.6751 -10.6260 -10.6259
   -10.4341 -10.4295  -5.9903  -5.9902  -5.9898  -5.9821  -5.4332  -5.4276
    -4.9860  -4.9803  -4.6811  -4.6766  -3.8802  -3.8794  -3.6835  -3.6761
    -3.6536  -3.6499  -3.2618  -3.2594  -3.2588  -3.2521  -3.2152  -3.2139
    -3.1687  -3.1639  -2.7908  -2.7774  -2.5554  -2.5422  -2.5350  -2.5263
    -2.2310  -2.2222  -2.0383  -2.0353  -2.0186  -2.0166  -1.8490  -1.8463
    -1.6936  -1.6925  -1.6298  -1.6235  -1.4329  -1.4241  -1.4189  -1.4168
    -1.1389  -1.1389  -0.9983  -0.9973  -0.9696  -0.9583  -0.8231  -0.8164
    -0.6611  -0.6608  -0.6443  -0.6432  -0.4392  -0.4343   0.7994   0.8040
     1.2129   1.2235   1.4554   1.4653   1.8663   1.8711   2.1062   2.1158
     2.6181   2.6283   2.6292   2.6365   2.9125   2.9275   3.7668   3.7785
     4.1045   4.1095   4.1684   4.1695

          k =-0.5000 0.0000 0.0000 ( 78694 PWs)   bands (ev):

  -103.0025-103.0025-102.9887-102.9887-102.7184-102.7183 -67.9830 -67.9830
   -67.9825 -67.9825 -63.5545 -63.5544 -63.5445 -63.5445 -63.3681 -63.3681
   -63.3635 -63.3635 -63.3084 -63.3084 -63.3045 -63.3045 -63.2423 -63.2422
   -63.2282 -63.2281 -62.9302 -62.9301 -34.5188 -34.5188 -34.5174 -34.5174
   -34.4891 -34.4891 -34.4829 -34.4828 -34.3516 -34.3516 -34.3512 -34.3512
   -12.7445 -12.7444 -12.1713 -12.1713 -12.0056 -12.0055 -11.7106 -11.7106
   -11.4502 -11.4502  -6.0039  -6.0038  -5.6227  -5.6227  -5.3286  -5.3286
    -4.8617  -4.8616  -4.3854  -4.3853  -3.7623  -3.7623  -3.5278  -3.5277
    -3.2171  -3.2171  -2.9966  -2.9966  -2.8187  -2.8187  -2.4622  -2.4622
    -2.4164  -2.4164  -2.1676  -2.1675  -2.1435  -2.1435  -1.8931  -1.8931
    -1.8378  -1.8377  -1.8354  -1.8353  -1.6840  -1.6840  -1.6590  -1.6589
    -1.5296  -1.5295  -1.1709  -1.1708  -1.1150  -1.1150  -0.9683  -0.9683
    -0.9137  -0.9137  -0.5290  -0.5289  -0.2714  -0.2714  -0.1009  -0.1008
     0.2008   0.2009   0.2740   0.2740   0.5066   0.5066   0.8668   0.8668
     0.9875   0.9876   1.5065   1.5065   1.7014   1.7015   2.1823   2.1823
     2.7325   2.7325   2.7367   2.7367   3.3028   3.3028   3.6576   3.6576
     3.8365   3.8365   4.0392   4.0392

          k =-0.5000 0.5239 0.0000 ( 78694 PWs)   bands (ev):

  -103.0021-103.0021-102.9891-102.9891-102.7184-102.7183 -67.9824 -67.9824
   -67.9820 -67.9820 -63.5542 -63.5542 -63.5448 -63.5448 -63.3687 -63.3687
   -63.3645 -63.3645 -63.3078 -63.3078 -63.3039 -63.3039 -63.2423 -63.2422
   -63.2282 -63.2281 -62.9304 -62.9303 -34.5169 -34.5168 -34.5154 -34.5153
   -34.4870 -34.4870 -34.4811 -34.4811 -34.3684 -34.3683 -34.3681 -34.3680
   -12.6240 -12.6239 -12.0611 -12.0611 -11.9226 -11.9225 -11.6205 -11.6205
   -11.3728 -11.3728  -5.8784  -5.8783  -5.5008  -5.5008  -5.2015  -5.2014
    -4.7493  -4.7493  -4.3014  -4.3013  -3.7704  -3.7704  -3.5281  -3.5280
    -3.1926  -3.1926  -3.0655  -3.0655  -2.8994  -2.8994  -2.4862  -2.4862
    -2.4352  -2.4352  -2.3770  -2.3770  -2.1822  -2.1821  -1.9753  -1.9753
    -1.8578  -1.8577  -1.7796  -1.7796  -1.7153  -1.7153  -1.6612  -1.6611
    -1.6178  -1.6178  -1.4023  -1.4023  -1.1294  -1.1293  -1.0103  -1.0103
    -0.8579  -0.8579  -0.6838  -0.6837  -0.3876  -0.3876  -0.2829  -0.2828
    -0.1385  -0.1385   0.1682   0.1683   0.4579   0.4580   0.6982   0.6982
     1.1071   1.1072   1.4131   1.4132   1.6003   1.6003   1.8222   1.8222
     2.4311   2.4312   2.7579   2.7579   2.8810   2.8810   3.5145   3.5146
     3.6872   3.6873   3.9429   3.9429

          k =-0.5000 1.0479 0.0000 ( 78652 PWs)   bands (ev):

  -103.0011-103.0011-102.9900-102.9900-102.7183-102.7182 -67.9809 -67.9809
   -67.9806 -67.9806 -63.5534 -63.5534 -63.5454 -63.5454 -63.3703 -63.3703
   -63.3668 -63.3668 -63.3065 -63.3065 -63.3024 -63.3024 -63.2422 -63.2421
   -63.2280 -63.2280 -62.9311 -62.9310 -34.5117 -34.5117 -34.5101 -34.5101
   -34.4815 -34.4815 -34.4766 -34.4766 -34.4122 -34.4121 -34.4118 -34.4117
   -12.2767 -12.2766 -11.7534 -11.7534 -11.6814 -11.6814 -11.3699 -11.3699
   -11.1535 -11.1535  -5.5444  -5.5443  -5.1747  -5.1747  -4.8561  -4.8561
    -4.4851  -4.4850  -4.1045  -4.1045  -3.8966  -3.8966  -3.5761  -3.5760
    -3.2995  -3.2994  -3.2486  -3.2485  -3.1526  -3.1526  -2.8803  -2.8803
    -2.7794  -2.7794  -2.5332  -2.5332  -2.3028  -2.3027  -2.2338  -2.2338
    -2.0835  -2.0835  -2.0110  -2.0110  -1.7792  -1.7792  -1.7377  -1.7377
    -1.6799  -1.6798  -1.5004  -1.5004  -1.2759  -1.2759  -1.1603  -1.1602
    -1.0179  -1.0179  -0.8843  -0.8843  -0.7855  -0.7855  -0.5628  -0.5628
    -0.4725  -0.4725  -0.0684  -0.0684   0.0542   0.0542   0.9861   0.9861
     1.1711   1.1711   1.2415   1.2415   1.4614   1.4614   1.8926   1.8926
     2.0251   2.0252   2.4593   2.4594   2.7353   2.7353   3.1079   3.1079
     3.2721   3.2721   4.2590   4.2590

          k =-0.5000 1.5718 0.0000 ( 78758 PWs)   bands (ev):

  -102.9996-102.9996-102.9915-102.9915-102.7183-102.7182 -67.9791 -67.9791
   -67.9789 -67.9788 -63.5523 -63.5523 -63.5465 -63.5465 -63.3727 -63.3727
   -63.3697 -63.3697 -63.3048 -63.3048 -63.3009 -63.3009 -63.2422 -63.2421
   -63.2280 -63.2279 -62.9322 -62.9321 -34.5054 -34.5053 -34.5037 -34.5037
   -34.4748 -34.4748 -34.4712 -34.4712 -34.4657 -34.4657 -34.4650 -34.4650
   -11.7531 -11.7530 -11.3756 -11.3755 -11.2636 -11.2636 -11.0291 -11.0291
   -10.8380 -10.8380  -5.2341  -5.2341  -4.8293  -4.8292  -4.7478  -4.7478
    -4.4980  -4.4979  -4.2420  -4.2419  -4.1411  -4.1411  -3.9003  -3.9002
    -3.7310  -3.7310  -3.5309  -3.5309  -3.3402  -3.3402  -3.1884  -3.1883
    -2.8775  -2.8775  -2.7975  -2.7975  -2.6600  -2.6600  -2.4323  -2.4323
    -2.2776  -2.2776  -2.0710  -2.0710  -1.8849  -1.8849  -1.8133  -1.8133
    -1.7729  -1.7729  -1.6116  -1.6115  -1.2906  -1.2906  -1.2101  -1.2101
    -1.1226  -1.1226  -1.0217  -1.0217  -0.8861  -0.8861  -0.8070  -0.8070
    -0.5982  -0.5982  -0.3442  -0.3441  -0.1802  -0.1801   1.0679   1.0680
     1.2600   1.2600   1.5078   1.5078   1.7300   1.7300   1.9414   1.9415
     2.0502   2.0502   2.3911   2.3911   2.7257   2.7257   3.1667   3.1667
     3.3837   3.3838   4.2345   4.2345

          k =-0.5000 2.0958 0.0000 ( 78872 PWs)   bands (ev):

  -102.9976-102.9976-102.9934-102.9934-102.7183-102.7182 -67.9776 -67.9776
   -67.9775 -67.9774 -63.5510 -63.5510 -63.5479 -63.5479 -63.3748 -63.3748
   -63.3717 -63.3717 -63.3034 -63.3034 -63.3001 -63.3001 -63.2422 -63.2421
   -63.2280 -63.2279 -62.9332 -62.9331 -34.5093 -34.5093 -34.5083 -34.5083
   -34.5000 -34.5000 -34.4983 -34.4982 -34.4690 -34.4689 -34.4663 -34.4663
   -11.1944 -11.1943 -11.0142 -11.0141 -10.8266 -10.8266 -10.7160 -10.7160
   -10.5458 -10.5458  -5.7106  -5.7106  -5.5392  -5.5391  -5.1007  -5.1007
    -4.7813  -4.7813  -4.5132  -4.5132  -4.1156  -4.1155  -3.8432  -3.8431
    -3.7093  -3.7092  -3.4253  -3.4253  -3.2372  -3.2372  -3.1532  -3.1532
    -3.0979  -3.0979  -2.8403  -2.8403  -2.6629  -2.6629  -2.4621  -2.4621
    -2.2470  -2.2470  -2.0756  -2.0755  -2.0011  -2.0011  -1.8492  -1.8492
    -1.7765  -1.7765  -1.6141  -1.6140  -1.4044  -1.4043  -1.2546  -1.2545
    -1.1389  -1.1388  -1.0748  -1.0748  -0.9838  -0.9838  -0.8445  -0.8445
    -0.6654  -0.6653  -0.4840  -0.4840  -0.3036  -0.3035   0.8586   0.8587
     1.2378   1.2379   1.6392   1.6393   1.8081   1.8082   2.2133   2.2133
     2.4151   2.4151   2.5090   2.5090   2.8679   2.8679   3.4627   3.4627
     3.6815   3.6815   3.9329   3.9329

          k =-0.5000-2.6197 0.0000 ( 78916 PWs)   bands (ev):

  -102.9955-102.9955-102.9955-102.9955-102.7183-102.7182 -67.9770 -67.9770
   -67.9770 -67.9769 -63.5496 -63.5496 -63.5494 -63.5494 -63.3755 -63.3755
   -63.3725 -63.3725 -63.3028 -63.3028 -63.2998 -63.2998 -63.2422 -63.2421
   -63.2279 -63.2278 -62.9335 -62.9334 -34.5256 -34.5255 -34.5244 -34.5244
   -34.4982 -34.4982 -34.4964 -34.4964 -34.4668 -34.4667 -34.4646 -34.4645
   -10.9726 -10.9725 -10.7072 -10.7072 -10.6681 -10.6681 -10.6343 -10.6342
   -10.4299 -10.4299  -6.0742  -6.0742  -5.8879  -5.8878  -5.4401  -5.4400
    -4.9712  -4.9711  -4.7024  -4.7024  -3.8215  -3.8214  -3.7614  -3.7614
    -3.5990  -3.5989  -3.3901  -3.3901  -3.2436  -3.2435  -3.2138  -3.2137
    -3.1006  -3.1006  -2.7286  -2.7286  -2.5979  -2.5979  -2.5171  -2.5171
    -2.0977  -2.0977  -2.0967  -2.0967  -2.0635  -2.0634  -1.7807  -1.7807
    -1.7463  -1.7463  -1.6215  -1.6214  -1.5156  -1.5156  -1.3127  -1.3126
    -1.1923  -1.1923  -1.0256  -1.0256  -0.9199  -0.9199  -0.8794  -0.8794
    -0.7125  -0.7124  -0.5556  -0.5556  -0.4372  -0.4371   0.8099   0.8100
     1.2146   1.2147   1.6289   1.6289   1.6414   1.6416   2.3182   2.3182
     2.4322   2.4323   2.5650   2.5650   2.9719   2.9720   3.9187   3.9188
     4.0062   4.0063   4.1529   4.1530

     the Fermi energy is     0.5768 ev

!    total energy              =   -9109.78914674 Ry
     total all-electron energy =     -9109.789147 Ry
     estimated scf accuracy    <          8.4E-11 Ry
     smearing contrib. (-TS)   =      -0.00000689 Ry
     internal energy E=F+TS    =   -9109.78913985 Ry

     The total energy is F=E-TS. E is the sum of the following terms:
     one-electron contribution =  -17305.38732794 Ry
     hartree contribution      =    8514.79143283 Ry
     xc contribution           =    -365.35387921 Ry
     ewald contribution        =    6313.95370829 Ry
     one-center paw contrib.   =   -6267.79307381 Ry

     convergence has been achieved in  16 iterations

     negative rho (up, down):  6.442E-02 0.000E+00

     Forces acting on atoms (cartesian axes, Ry/au):

     atom    1 type  1   force =    -0.00039755    0.00034874   -0.00024239
     atom    2 type  1   force =    -0.00038960   -0.00036096    0.00024160
     atom    3 type  1   force =     0.00039285    0.00034793   -0.00023656
     atom    4 type  1   force =     0.00039412   -0.00035924    0.00023676
     atom    5 type  2   force =     0.00003360   -0.00040610   -0.00014165
     atom    6 type  2   force =     0.00003949    0.00043638    0.00014839
     atom    7 type  2   force =    -0.00001463   -0.00040704   -0.00015752
     atom    8 type  2   force =    -0.00002307    0.00043800    0.00015785
     atom    9 type  2   force =    -0.00000076   -0.00077734    0.00015105
     atom   10 type  2   force =    -0.00001291    0.00079519   -0.00014541
     atom   11 type  3   force =     0.00023595    0.00065442   -0.00016175
     atom   12 type  3   force =     0.00024594   -0.00068483    0.00015303
     atom   13 type  3   force =    -0.00025972   -0.00055292    0.00016979
     atom   14 type  3   force =    -0.00025626    0.00055165   -0.00017078
     atom   15 type  3   force =    -0.00025591    0.00065464   -0.00012702
     atom   16 type  3   force =    -0.00026437   -0.00068618    0.00011977
     atom   17 type  3   force =     0.00026730   -0.00055403    0.00015174
     atom   18 type  3   force =     0.00026045    0.00055370   -0.00014884
     atom   19 type  3   force =     0.00000351   -0.00094065    0.00028098
     atom   20 type  3   force =     0.00000157    0.00094862   -0.00027905

     Total force =     0.003018     Total SCF correction =     0.000062


     Computing stress (Cartesian axis) and pressure


     negative rho (up, down):  6.442E-02 0.000E+00
          total   stress  (Ry/bohr**3)                   (kbar)     P=        7.13
   0.00004565   0.00000000  -0.00000000            6.71        0.00       -0.00
   0.00000000   0.00014206   0.00000067            0.00       20.90        0.10
  -0.00000000   0.00000067  -0.00004229           -0.00        0.10       -6.22

     Energy error            =      1.9E-05 Ry
     Gradient error          =      9.5E-04 Ry/Bohr

     bfgs converged in  26 scf cycles and  25 bfgs steps
     (criteria: energy <  1.0E-04 Ry, force <  1.0E-03 Ry/Bohr)

     End of BFGS Geometry Optimization

     Final energy             =   -9109.7891467371 Ry

     File /ddn/data/physics/eamoujaes/2D-Ta2Ni3Te5/ELASTIC/C22/OUT/ta2ni3te5.bfgs deleted, as requested
Begin final coordinates

ATOMIC_POSITIONS (angstrom)
Ta              15.4048828977        0.9819802399       12.2911797766
Ta               6.5845760033        2.6777473703       12.7446590860
Ta               2.2520266728        0.9820078377       12.2911187029
Ta              11.0723420815        2.6777188872       12.7447348584
Ni              12.8487581491        0.9882166586       11.7154675888
Ni               4.0284368592        2.6713978945       13.3203622142
Ni               4.8079484449        0.9882479323       11.7153819619
Ni              13.6282755144        2.6713629835       13.3204487393
Ni               8.8285892358        0.9934947557       12.4352420546
Ni               0.0083339914        2.6661893077       12.6005180879
Te              14.2052819346        2.6667969375       10.3241471701
Te               5.3849324937        0.9929727483       14.7117054754
Te              10.5712005165        0.9973621721       10.5540116035
Te               1.7508881590        2.6623588492       14.4818307799
Te               3.4516840966        2.6668268585       10.3238835985
Te              12.2720351199        0.9929452183       14.7119761949
Te               7.0857213323        0.9973979216       10.5540877694
Te              15.9060523547        2.6623164520       14.4817388041
Te               0.0081732672        0.9907801693       10.6218612010
Te               8.8284232387        2.6688112596       14.4138953324
End final coordinates



     Writing all to output data dir /ddn/data/physics/eamoujaes/2D-Ta2Ni3Te5/ELASTIC/C22/OUT/ta2ni3te5.save/ :
     XML data file, charge density, pseudopotentials, collected wavefunctions
 
     init_run     :     51.20s CPU     62.87s WALL (       1 calls)
     electrons    :  14560.09s CPU  18940.27s WALL (      26 calls)
     update_pot   :    678.62s CPU    872.40s WALL (      25 calls)
     forces       :     43.74s CPU     54.98s WALL (      26 calls)
     stress       :     76.30s CPU    120.67s WALL (      26 calls)

     Called by init_run:
     wfcinit      :      5.23s CPU      6.76s WALL (       1 calls)
     potinit      :     41.60s CPU     50.56s WALL (       1 calls)
     hinit0       :      2.56s CPU      2.99s WALL (       1 calls)

     Called by electrons:
     c_bands      :    942.07s CPU   1382.96s WALL (     503 calls)
     sum_band     :    315.88s CPU    419.91s WALL (     503 calls)
     v_of_rho     :    174.34s CPU    232.88s WALL (     520 calls)
     newd         :     34.57s CPU     57.04s WALL (     520 calls)
                                       57.04s GPU  (     520 calls)
     PAW_pot      :  14308.17s CPU  18391.56s WALL (     545 calls)
     mix_rho      :     49.42s CPU     95.20s WALL (     503 calls)

     Called by c_bands:
     init_us_2    :    103.81s CPU    131.50s WALL (   13008 calls)
     init_us_2:cp :     88.43s CPU    112.26s WALL (     300 calls)
     init_us_2:gp :     15.05s CPU     18.88s WALL (   12708 calls)
     cegterg      :    543.01s CPU    920.54s WALL (    6037 calls)

     Called by *egterg:
     cdiaghg      :     54.61s CPU     86.98s WALL (   21217 calls)
                                       86.87s GPU  (   21217 calls)
     h_psi        :    382.75s CPU    658.26s WALL (   21638 calls)
                                      656.71s GPU  (   21638 calls)
     s_psi        :      9.43s CPU     13.12s WALL (   21638 calls)
     g_psi        :      0.06s CPU      5.97s WALL (   15589 calls)
                                        5.84s GPU  (   15589 calls)

     Called by h_psi:
     h_psi:calbec :      0.68s CPU     26.37s WALL (   21638 calls)
                                       26.14s GPU  (   21638 calls)
     vloc_psi     :    341.88s CPU    591.91s WALL (   21638 calls)
                                      591.79s GPU  (   21638 calls)
     add_vuspsi   :      7.26s CPU     33.40s WALL (   21638 calls)
                                       33.19s GPU  (   21638 calls)

     General routines
     calbec       :    233.19s CPU    409.91s WALL (   29534 calls)
     fft          :     40.41s CPU     42.97s WALL (    7392 calls)
                                        2.46s GPU  (    6872 calls)
     ffts         :     11.91s CPU     12.02s WALL (    1023 calls)
                                        0.07s GPU  (     503 calls)
     fftw         :      2.24s CPU    521.58s WALL (  315850 calls)
                                      517.68s GPU  (  315850 calls)
     interpolate  :     59.86s CPU     63.76s WALL (     520 calls)
 
     Parallel routines
 
     PWSCF        :      4h33m CPU      5h57m WALL

 
   This run was terminated on:   3:34: 8  28Jul2024            

=------------------------------------------------------------------------------=
   JOB DONE.
=------------------------------------------------------------------------------=
