
     Program PWSCF v.7.3 starts on 28Jul2024 at  3:34:28 

     This program is part of the open-source Quantum ESPRESSO suite
     for quantum simulation of materials; please cite
         "P. Giannozzi et al., J. Phys.:Condens. Matter 21 395502 (2009);
         "P. Giannozzi et al., J. Phys.:Condens. Matter 29 465901 (2017);
         "P. Giannozzi et al., J. Chem. Phys. 152 154105 (2020);
          URL http://www.quantum-espresso.org", 
     in publications or presentations arising from this work. More details at
     http://www.quantum-espresso.org/quote

     Parallel version (MPI & OpenMP), running on      32 processor cores
     Number of MPI processes:                 1
     Threads/MPI process:                    32

     MPI processes distributed on     1 nodes
     207000 MiB available memory on the printing compute node when the environment starts
 
     Waiting for input...
     Reading input from standard input
Warning: card &CELL ignored
Warning: card CELL_DYNAMICS='BFGS' ignored
Warning: card PRESS=0.0 ignored
Warning: card CELL_DOFREE='2DXY' ignored
Warning: card / ignored

     Current dimensions of program PWSCF are:
     Max number of different atomic species (ntypx) = 10
     Max number of k-points (npk) =  40000
     Max angular momentum in pseudopotentials (lmaxx) =  4
read_pp_mesh; mismatch in mesh size, discarding the one in header
read_pp_mesh; mismatch in mesh size, discarding the one in header
read_pp_mesh; mismatch in mesh size, discarding the one in header
 
     Subspace diagonalization in iterative solution of the eigenvalue problem:
     a serial algorithm will be used

 
     G-vector sticks info
     --------------------
     sticks:   dense  smooth     PW     G-vecs:    dense   smooth      PW
     Sum        8281    4137   1175              1821141   643233   96979
 
     Using Slab Decomposition
 


     bravais-lattice index     =            0
     lattice parameter (alat)  =      33.3357  a.u.
     unit-cell volume          =   10252.6601 (a.u.)^3
     number of atoms/cell      =           20
     number of atomic types    =            3
     number of electrons       =       220.00
     number of Kohn-Sham states=          132
     kinetic-energy cutoff     =      60.0000  Ry
     charge density cutoff     =     480.0000  Ry
     scf convergence threshold =      1.0E-08
     mixing beta               =       0.2000
     number of iterations used =            8  plain     mixing
     energy convergence thresh.=      1.0E-04
     force convergence thresh. =      1.0E-03
     Exchange-correlation= SLA PW PBX PBC
                           (   1   4   3   4   0   0   0)
     nstep                     =         2000


     GPU acceleration is ACTIVE.  1 visible GPUs per MPI rank
     GPU-aware MPI enabled


     celldm(1)=  33.335714  celldm(2)=   0.000000  celldm(3)=   0.000000
     celldm(4)=   0.000000  celldm(5)=   0.000000  celldm(6)=   0.000000

     crystal axes: (cart. coord. in units of alat)
               a(1) = (   1.000000   0.000000   0.000000 )  
               a(2) = (   0.000000   0.195011   0.000000 )  
               a(3) = (   0.000000   0.000000   1.419211 )  

     reciprocal axes: (cart. coord. in units 2 pi/alat)
               b(1) = (  1.000000  0.000000  0.000000 )  
               b(2) = (  0.000000  5.127903  0.000000 )  
               b(3) = (  0.000000  0.000000  0.704617 )  


     PseudoPot. # 1 for Ta read from file:
     /ddn/data/physics/eamoujaes/PSEUDO-CREATED/Ta.upf
     MD5 check sum: d865b2c2c09566b116f2b8decb2c153d
     Pseudo is Projector augmented-wave + core cor, Zval = 13.0
     Generated using ATOMPAW code
     Shape of augmentation charge: SINC**2
     Using radial grid of 2342 points,  6 beta functions with: 
                l(1) =   0
                l(2) =   0
                l(3) =   1
                l(4) =   1
                l(5) =   2
                l(6) =   2
     Q(r) pseudized with 0 coefficients 


     PseudoPot. # 2 for Ni read from file:
     /ddn/data/physics/eamoujaes/PSEUDO-CREATED/Ni.upf
     MD5 check sum: 85a2a5d9d38f4289a1cc30d5adb66a03
     Pseudo is Projector augmented-wave + core cor, Zval = 18.0
     Generated using ATOMPAW code
     Shape of augmentation charge: SINC**2
     Using radial grid of 2342 points,  6 beta functions with: 
                l(1) =   0
                l(2) =   0
                l(3) =   1
                l(4) =   1
                l(5) =   2
                l(6) =   2
     Q(r) pseudized with 0 coefficients 


     PseudoPot. # 3 for Te read from file:
     /ddn/data/physics/eamoujaes/PSEUDO-CREATED/Te.upf
     MD5 check sum: 8d958f193a7511a138982c2e72838810
     Pseudo is Projector augmented-wave + core cor, Zval =  6.0
     Generated using ATOMPAW code
     Shape of augmentation charge: SINC**2
     Using radial grid of 2342 points,  4 beta functions with: 
                l(1) =   0
                l(2) =   0
                l(3) =   1
                l(4) =   1
     Q(r) pseudized with 0 coefficients 


     atomic species   valence    mass     pseudopotential
     Ta               13.00   180.94790     Ta( 1.00)
     Ni               18.00    58.69340     Ni( 1.00)
     Te                6.00   127.60000     Te( 1.00)

     No symmetry found



   Cartesian axes

     site n.     atom                  positions (alat units)
         1        Ta     tau(   1) = (   0.8725286   0.0518649   0.7054131  )
         2        Ta     tau(   2) = (   0.3725263   0.1555948   0.7138118  )
         3        Ta     tau(   3) = (   0.1284065   0.0518649   0.7054032  )
         4        Ta     tau(   4) = (   0.6284092   0.1555948   0.7138208  )
         5        Ni     tau(   5) = (   0.7292542   0.0518649   0.6667436  )
         6        Ni     tau(   6) = (   0.2292509   0.1555948   0.7524812  )
         7        Ni     tau(   7) = (   0.2716741   0.0518649   0.6667284  )
         8        Ni     tau(   8) = (   0.7716766   0.1555948   0.7524957  )
         9        Ni     tau(   9) = (   0.5004590   0.0518649   0.7011256  )
        10        Ni     tau(  10) = (   0.0004579   0.1555948   0.7180981  )
        11        Te     tau(  11) = (   0.8057052   0.1555948   0.5972198  )
        12        Te     tau(  12) = (   0.3057012   0.0518649   0.8220046  )
        13        Te     tau(  13) = (   0.6006311   0.0518649   0.5963172  )
        14        Te     tau(  14) = (   0.1006292   0.1555948   0.8229072  )
        15        Te     tau(  15) = (   0.1952149   0.1555948   0.5972072  )
        16        Te     tau(  16) = (   0.6952178   0.0518649   0.8220171  )
        17        Te     tau(  17) = (   0.4003072   0.0518649   0.5963080  )
        18        Te     tau(  18) = (   0.9003091   0.1555948   0.8229170  )
        19        Te     tau(  19) = (   0.0004704   0.0518649   0.6143601  )
        20        Te     tau(  20) = (   0.5004710   0.1555948   0.8048626  )

     number of k points=    12  Gaussian smearing, width (Ry)=  0.0020
                       cart. coord. in units 2pi/alat
        k(    1) = (   0.0000000   0.0000000   0.0000000), wk =   0.1000000
        k(    2) = (   0.0000000   0.5127903   0.0000000), wk =   0.2000000
        k(    3) = (   0.0000000   1.0255807   0.0000000), wk =   0.2000000
        k(    4) = (   0.0000000   1.5383710   0.0000000), wk =   0.2000000
        k(    5) = (   0.0000000   2.0511613   0.0000000), wk =   0.2000000
        k(    6) = (   0.0000000  -2.5639516   0.0000000), wk =   0.1000000
        k(    7) = (  -0.5000000   0.0000000   0.0000000), wk =   0.1000000
        k(    8) = (  -0.5000000   0.5127903   0.0000000), wk =   0.2000000
        k(    9) = (  -0.5000000   1.0255807   0.0000000), wk =   0.2000000
        k(   10) = (  -0.5000000   1.5383710   0.0000000), wk =   0.2000000
        k(   11) = (  -0.5000000   2.0511613   0.0000000), wk =   0.2000000
        k(   12) = (  -0.5000000  -2.5639516   0.0000000), wk =   0.1000000

     Dense  grid:  1821141 G-vectors     FFT dimensions: ( 240,  45, 360)

     Smooth grid:   643233 G-vectors     FFT dimensions: ( 180,  36, 240)

     Estimated max dynamical RAM per process >       9.30 GB

     Initial potential from superposition of free atoms

     starting charge     219.9927, renormalised to     220.0000

     negative rho (up, down):  4.937E-02 0.000E+00
     Starting wfcs are  260 randomized atomic wfcs
     Checking if some PAW data can be deallocated... 

     total cpu time spent up to now is       65.3 secs

     Self-consistent Calculation

     iteration #  1     ecut=    60.00 Ry     beta= 0.20
     Davidson diagonalization with overlap
     ethr =  1.00E-02,  avg # of iterations =  3.0

     negative rho (up, down):  4.993E-02 0.000E+00

     total cpu time spent up to now is      102.2 secs

     total energy              =   -9107.86844185 Ry
     estimated scf accuracy    <       7.74485090 Ry

     iteration #  2     ecut=    60.00 Ry     beta= 0.20
     Davidson diagonalization with overlap
     ethr =  3.52E-03,  avg # of iterations =  2.3

     negative rho (up, down):  5.166E-02 0.000E+00

     total cpu time spent up to now is      139.1 secs

     total energy              =   -9108.32500904 Ry
     estimated scf accuracy    <      10.97767646 Ry

     iteration #  3     ecut=    60.00 Ry     beta= 0.20
     Davidson diagonalization with overlap
     ethr =  3.52E-03,  avg # of iterations =  1.0

     negative rho (up, down):  5.267E-02 0.000E+00

     total cpu time spent up to now is      175.7 secs

     total energy              =   -9109.63421078 Ry
     estimated scf accuracy    <       3.49033434 Ry

     iteration #  4     ecut=    60.00 Ry     beta= 0.20
     Davidson diagonalization with overlap
     ethr =  1.59E-03,  avg # of iterations =  1.0

     negative rho (up, down):  5.405E-02 0.000E+00

     total cpu time spent up to now is      212.0 secs

     total energy              =   -9109.80228511 Ry
     estimated scf accuracy    <       0.72028900 Ry

     iteration #  5     ecut=    60.00 Ry     beta= 0.20
     Davidson diagonalization with overlap
     ethr =  3.27E-04,  avg # of iterations =  1.4

     negative rho (up, down):  6.027E-02 0.000E+00

     total cpu time spent up to now is      248.7 secs

     total energy              =   -9109.67670819 Ry
     estimated scf accuracy    <       0.39988159 Ry

     iteration #  6     ecut=    60.00 Ry     beta= 0.20
     Davidson diagonalization with overlap
     ethr =  1.82E-04,  avg # of iterations =  6.8

     negative rho (up, down):  6.214E-02 0.000E+00

     total cpu time spent up to now is      286.3 secs

     total energy              =   -9109.77148133 Ry
     estimated scf accuracy    <       0.35908358 Ry

     iteration #  7     ecut=    60.00 Ry     beta= 0.20
     Davidson diagonalization with overlap
     ethr =  1.63E-04,  avg # of iterations =  1.2

     negative rho (up, down):  6.246E-02 0.000E+00

     total cpu time spent up to now is      323.2 secs

     total energy              =   -9109.74870993 Ry
     estimated scf accuracy    <       0.39950802 Ry

     iteration #  8     ecut=    60.00 Ry     beta= 0.20
     Davidson diagonalization with overlap
     ethr =  1.63E-04,  avg # of iterations =  1.1

     negative rho (up, down):  6.260E-02 0.000E+00

     total cpu time spent up to now is      359.7 secs

     total energy              =   -9109.74742101 Ry
     estimated scf accuracy    <       0.07507543 Ry

     iteration #  9     ecut=    60.00 Ry     beta= 0.20
     Davidson diagonalization with overlap
     c_bands:  2 eigenvalues not converged
     c_bands:  1 eigenvalues not converged
     ethr =  3.41E-05,  avg # of iterations =  9.5

     negative rho (up, down):  6.350E-02 0.000E+00

     total cpu time spent up to now is      397.4 secs

     total energy              =   -9109.75560325 Ry
     estimated scf accuracy    <       0.00886207 Ry

     iteration # 10     ecut=    60.00 Ry     beta= 0.20
     Davidson diagonalization with overlap
     c_bands:  3 eigenvalues not converged
     c_bands:  1 eigenvalues not converged
     c_bands:  2 eigenvalues not converged
     ethr =  4.03E-06,  avg # of iterations = 13.7

     negative rho (up, down):  6.479E-02 0.000E+00

     total cpu time spent up to now is      436.3 secs

     total energy              =   -9109.75013287 Ry
     estimated scf accuracy    <       0.06364911 Ry

     iteration # 11     ecut=    60.00 Ry     beta= 0.20
     Davidson diagonalization with overlap
     c_bands:  2 eigenvalues not converged
     ethr =  4.03E-06,  avg # of iterations =  5.4

     negative rho (up, down):  6.587E-02 0.000E+00

     total cpu time spent up to now is      473.7 secs

     total energy              =   -9109.75409760 Ry
     estimated scf accuracy    <       0.00546408 Ry

     iteration # 12     ecut=    60.00 Ry     beta= 0.20
     Davidson diagonalization with overlap
     c_bands:  1 eigenvalues not converged
     ethr =  2.48E-06,  avg # of iterations =  3.5

     negative rho (up, down):  6.608E-02 0.000E+00

     total cpu time spent up to now is      510.7 secs

     total energy              =   -9109.75448975 Ry
     estimated scf accuracy    <       0.00096843 Ry

     iteration # 13     ecut=    60.00 Ry     beta= 0.20
     Davidson diagonalization with overlap
     ethr =  4.40E-07,  avg # of iterations =  2.3

     negative rho (up, down):  6.627E-02 0.000E+00

     total cpu time spent up to now is      548.0 secs

     total energy              =   -9109.75461173 Ry
     estimated scf accuracy    <       0.00014368 Ry

     iteration # 14     ecut=    60.00 Ry     beta= 0.20
     Davidson diagonalization with overlap
     ethr =  6.53E-08,  avg # of iterations =  2.3

     negative rho (up, down):  6.642E-02 0.000E+00

     total cpu time spent up to now is      584.8 secs

     total energy              =   -9109.75462371 Ry
     estimated scf accuracy    <       0.00005328 Ry

     iteration # 15     ecut=    60.00 Ry     beta= 0.20
     Davidson diagonalization with overlap
     ethr =  2.42E-08,  avg # of iterations =  2.0

     negative rho (up, down):  6.648E-02 0.000E+00

     total cpu time spent up to now is      621.5 secs

     total energy              =   -9109.75462823 Ry
     estimated scf accuracy    <       0.00002848 Ry

     iteration # 16     ecut=    60.00 Ry     beta= 0.20
     Davidson diagonalization with overlap
     ethr =  1.29E-08,  avg # of iterations =  2.0

     negative rho (up, down):  6.651E-02 0.000E+00

     total cpu time spent up to now is      658.6 secs

     total energy              =   -9109.75463044 Ry
     estimated scf accuracy    <       0.00001806 Ry

     iteration # 17     ecut=    60.00 Ry     beta= 0.20
     Davidson diagonalization with overlap
     ethr =  8.21E-09,  avg # of iterations =  1.3

     negative rho (up, down):  6.649E-02 0.000E+00

     total cpu time spent up to now is      695.4 secs

     total energy              =   -9109.75463176 Ry
     estimated scf accuracy    <       0.00000374 Ry

     iteration # 18     ecut=    60.00 Ry     beta= 0.20
     Davidson diagonalization with overlap
     ethr =  1.70E-09,  avg # of iterations =  2.5

     negative rho (up, down):  6.647E-02 0.000E+00

     total cpu time spent up to now is      732.7 secs

     total energy              =   -9109.75463212 Ry
     estimated scf accuracy    <       0.00000575 Ry

     iteration # 19     ecut=    60.00 Ry     beta= 0.20
     Davidson diagonalization with overlap
     ethr =  1.70E-09,  avg # of iterations =  1.2

     negative rho (up, down):  6.645E-02 0.000E+00

     total cpu time spent up to now is      769.4 secs

     total energy              =   -9109.75463251 Ry
     estimated scf accuracy    <       0.00000076 Ry

     iteration # 20     ecut=    60.00 Ry     beta= 0.20
     Davidson diagonalization with overlap
     ethr =  3.43E-10,  avg # of iterations =  2.2

     negative rho (up, down):  6.643E-02 0.000E+00

     total cpu time spent up to now is      806.5 secs

     total energy              =   -9109.75463254 Ry
     estimated scf accuracy    <       0.00000084 Ry

     iteration # 21     ecut=    60.00 Ry     beta= 0.20
     Davidson diagonalization with overlap
     ethr =  3.43E-10,  avg # of iterations =  1.0

     negative rho (up, down):  6.641E-02 0.000E+00

     total cpu time spent up to now is      843.3 secs

     total energy              =   -9109.75463262 Ry
     estimated scf accuracy    <       0.00000042 Ry

     iteration # 22     ecut=    60.00 Ry     beta= 0.20
     Davidson diagonalization with overlap
     ethr =  1.89E-10,  avg # of iterations =  1.3

     negative rho (up, down):  6.639E-02 0.000E+00

     total cpu time spent up to now is      879.9 secs

     total energy              =   -9109.75463266 Ry
     estimated scf accuracy    <       0.00000026 Ry

     iteration # 23     ecut=    60.00 Ry     beta= 0.20
     Davidson diagonalization with overlap
     ethr =  1.17E-10,  avg # of iterations =  1.0

     negative rho (up, down):  6.638E-02 0.000E+00

     total cpu time spent up to now is      916.7 secs

     total energy              =   -9109.75463269 Ry
     estimated scf accuracy    <       0.00000004 Ry

     iteration # 24     ecut=    60.00 Ry     beta= 0.20
     Davidson diagonalization with overlap
     ethr =  1.76E-11,  avg # of iterations =  4.0

     negative rho (up, down):  6.637E-02 0.000E+00

     total cpu time spent up to now is      954.1 secs

     total energy              =   -9109.75463270 Ry
     estimated scf accuracy    <       0.00000002 Ry

     iteration # 25     ecut=    60.00 Ry     beta= 0.20
     Davidson diagonalization with overlap
     ethr =  7.82E-12,  avg # of iterations =  2.1

     negative rho (up, down):  6.637E-02 0.000E+00

     total cpu time spent up to now is      991.0 secs

     total energy              =   -9109.75463270 Ry
     estimated scf accuracy    <       0.00000002 Ry

     iteration # 26     ecut=    60.00 Ry     beta= 0.20
     Davidson diagonalization with overlap
     ethr =  7.82E-12,  avg # of iterations =  1.0

     negative rho (up, down):  6.635E-02 0.000E+00

     total cpu time spent up to now is     1027.6 secs

     End of self-consistent calculation

          k = 0.0000 0.0000 0.0000 ( 80199 PWs)   bands (ev):

  -103.1954-103.1954-103.1763-103.1763-102.8376-102.8375 -68.0848 -68.0848
   -68.0842 -68.0841 -63.7571 -63.7570 -63.7465 -63.7461 -63.6187 -63.6186
   -63.5382 -63.5382 -63.5202 -63.5201 -63.4498 -63.4498 -63.3417 -63.3415
   -63.3254 -63.3250 -63.1018 -63.1017 -34.6405 -34.6400 -34.6384 -34.6382
   -34.6204 -34.6165 -34.6161 -34.6115 -34.5137 -34.5136 -34.5132 -34.5131
   -13.0961 -12.8150 -12.6709 -12.2044 -12.1663 -11.9341 -11.8619 -11.8333
   -11.7690 -11.4921  -6.2229  -5.9751  -5.8168  -5.7210  -5.5121  -5.4946
    -5.4929  -4.8546  -4.7203  -4.2830  -4.2322  -3.8942  -3.8392  -3.7950
    -3.6526  -3.6258  -3.4157  -3.3759  -3.1002  -2.9849  -2.9792  -2.9257
    -2.6633  -2.6048  -2.5819  -2.4095  -2.3975  -2.2822  -2.2440  -2.2381
    -2.0665  -1.9928  -1.9543  -1.8989  -1.8608  -1.7801  -1.7623  -1.6446
    -1.5906  -1.5587  -1.5414  -1.4636  -1.2402  -1.2008  -1.0998  -0.9953
    -0.9574  -0.7855  -0.7473  -0.7123  -0.5096  -0.4425  -0.3657  -0.3601
    -0.2103  -0.1909   0.0050   0.0385   0.2230   0.2543   0.5387   0.7902
     1.0245   1.4241   1.5247   1.6516   1.6525   1.7619   1.7625   1.9453
     2.4020   2.5062   2.5320   2.9223   2.9681   3.1858   3.5282   3.6954
     3.8253   3.9065   3.9309   4.0504

          k = 0.0000 0.5128 0.0000 ( 80314 PWs)   bands (ev):

  -103.1950-103.1950-103.1767-103.1767-102.8376-102.8375 -68.0844 -68.0844
   -68.0838 -68.0837 -63.7568 -63.7568 -63.7467 -63.7464 -63.6187 -63.6186
   -63.5463 -63.5463 -63.5128 -63.5128 -63.4502 -63.4501 -63.3416 -63.3415
   -63.3254 -63.3250 -63.1024 -63.1023 -34.6389 -34.6383 -34.6366 -34.6366
   -34.6186 -34.6149 -34.6145 -34.6102 -34.5277 -34.5276 -34.5271 -34.5271
   -12.9788 -12.7008 -12.5633 -12.1112 -12.0981 -11.8519 -11.8023 -11.7535
   -11.6872 -11.4350  -6.1126  -5.8698  -5.6978  -5.5978  -5.4165  -5.3869
    -5.3683  -4.7516  -4.6365  -4.2263  -4.2016  -3.9704  -3.8856  -3.8183
    -3.7070  -3.6187  -3.5165  -3.4227  -3.1030  -3.0618  -3.0323  -2.7712
    -2.7607  -2.7097  -2.6612  -2.6339  -2.5707  -2.5388  -2.2207  -2.1603
    -2.0879  -2.0868  -1.9932  -1.9605  -1.9143  -1.8429  -1.8330  -1.7502
    -1.7106  -1.6085  -1.5314  -1.4052  -1.3622  -1.2361  -1.1873  -1.1567
    -1.0131  -1.0075  -0.8071  -0.7388  -0.7002  -0.5966  -0.5900  -0.4665
    -0.3322  -0.2672  -0.1861  -0.0505   0.2971   0.3288   0.4599   0.7113
     1.0995   1.4028   1.4160   1.4725   1.5433   1.6248   1.6796   1.8684
     2.2554   2.3366   2.5822   2.6811   2.7638   2.9257   3.2635   3.4538
     3.5515   3.6463   3.7631   3.9084

          k = 0.0000 1.0256 0.0000 ( 80474 PWs)   bands (ev):

  -103.1939-103.1938-103.1778-103.1777-102.8376-102.8375 -68.0833 -68.0832
   -68.0827 -68.0827 -63.7564 -63.7563 -63.7474 -63.7473 -63.6178 -63.6177
   -63.5592 -63.5592 -63.5013 -63.5013 -63.4514 -63.4513 -63.3416 -63.3415
   -63.3253 -63.3251 -63.1033 -63.1032 -34.6347 -34.6341 -34.6324 -34.6322
   -34.6141 -34.6110 -34.6107 -34.6071 -34.5639 -34.5635 -34.5630 -34.5627
   -12.6408 -12.3731 -12.2561 -11.9067 -11.8582 -11.6505 -11.6096 -11.5204
   -11.4609 -11.2786  -5.8296  -5.5860  -5.3911  -5.3266  -5.1641  -5.0543
    -5.0526  -4.5749  -4.5246  -4.3078  -4.1179  -4.0903  -3.9679  -3.9589
    -3.9240  -3.7899  -3.7429  -3.5453  -3.4067  -3.2183  -3.1574  -3.1204
    -3.1077  -3.0040  -2.9285  -2.7470  -2.6743  -2.5147  -2.4662  -2.3824
    -2.3647  -2.2920  -2.2525  -2.1781  -2.0987  -2.0728  -1.9820  -1.9327
    -1.7840  -1.7540  -1.6900  -1.5950  -1.5595  -1.3923  -1.3582  -1.3334
    -1.2025  -1.0651  -0.9763  -0.8484  -0.8062  -0.8019  -0.7768  -0.7576
    -0.7428  -0.4811  -0.2698  -0.1191  -0.0543  -0.0342   0.8053   1.0372
     1.1047   1.2593   1.2638   1.3419   1.4780   1.5161   1.6511   1.8511
     2.1611   2.1701   2.3065   2.4901   2.6954   2.7479   2.9611   3.0070
     3.1694   3.3760   4.1501   4.3094

          k = 0.0000 1.5384 0.0000 ( 80594 PWs)   bands (ev):

  -103.1922-103.1922-103.1794-103.1793-102.8376-102.8375 -68.0819 -68.0818
   -68.0814 -68.0814 -63.7557 -63.7555 -63.7486 -63.7485 -63.6156 -63.6156
   -63.5714 -63.5713 -63.4908 -63.4907 -63.4534 -63.4533 -63.3415 -63.3414
   -63.3254 -63.3252 -63.1043 -63.1042 -34.6302 -34.6296 -34.6282 -34.6279
   -34.6173 -34.6154 -34.6143 -34.6124 -34.5996 -34.5977 -34.5972 -34.5955
   -12.1290 -11.8864 -11.8050 -11.6335 -11.5268 -11.4358 -11.2862 -11.1671
   -11.1615 -11.0689  -5.6380  -5.3582  -5.3427  -5.2442  -5.0540  -4.9357
    -4.8755  -4.7462  -4.6962  -4.5872  -4.3548  -4.2715  -4.2453  -4.1119
    -3.9856  -3.9357  -3.7990  -3.6906  -3.6885  -3.4774  -3.4277  -3.3937
    -3.3280  -3.0232  -2.9586  -2.8918  -2.8672  -2.8265  -2.6702  -2.6669
    -2.5947  -2.4995  -2.4833  -2.2574  -2.2075  -2.1445  -2.0971  -2.0163
    -1.9491  -1.9201  -1.8752  -1.6878  -1.6464  -1.4597  -1.4382  -1.3386
    -1.2339  -1.2040  -1.1734  -1.1140  -0.9861  -0.9634  -0.9588  -0.8955
    -0.7451  -0.5818  -0.5192  -0.3363  -0.3250  -0.2439   0.9254   1.0453
     1.1503   1.2223   1.3165   1.5231   1.6773   1.7238   1.8302   1.9426
     2.1897   2.2482   2.2819   2.5819   2.6389   2.8925   3.0302   3.1034
     3.4403   3.4702   4.0528   4.2624

          k = 0.0000 2.0512 0.0000 ( 80630 PWs)   bands (ev):

  -103.1905-103.1905-103.1811-103.1810-102.8376-102.8375 -68.0807 -68.0807
   -68.0804 -68.0803 -63.7547 -63.7546 -63.7497 -63.7496 -63.6129 -63.6129
   -63.5808 -63.5807 -63.4828 -63.4827 -63.4559 -63.4558 -63.3415 -63.3414
   -63.3252 -63.3251 -63.1050 -63.1049 -34.6493 -34.6485 -34.6484 -34.6476
   -34.6246 -34.6238 -34.6220 -34.6214 -34.5987 -34.5977 -34.5968 -34.5957
   -11.5482 -11.3967 -11.3758 -11.2917 -11.2610 -11.2337 -10.9999 -10.9485
   -10.8724 -10.8220  -6.0430  -6.0128  -5.9784  -5.8550  -5.3601  -5.2667
    -5.0495  -4.9808  -4.8193  -4.6602  -4.3141  -4.3125  -4.1631  -3.8646
    -3.8376  -3.7530  -3.6921  -3.6535  -3.4939  -3.4766  -3.4412  -3.3735
    -3.2400  -3.1758  -3.1568  -3.1268  -2.9616  -2.8535  -2.7471  -2.6756
    -2.6252  -2.5381  -2.5293  -2.2569  -2.2200  -2.1580  -2.1257  -2.0259
    -2.0195  -1.9717  -1.9557  -1.7906  -1.6842  -1.6041  -1.4896  -1.4824
    -1.3081  -1.2740  -1.2543  -1.2271  -1.1363  -1.0964  -1.0132  -0.9544
    -0.7723  -0.7582  -0.6319  -0.5358  -0.4920  -0.4660   0.7266   0.8437
     1.3117   1.3415   1.3686   1.4758   1.8095   2.0631   2.0847   2.2396
     2.3786   2.5484   2.6135   2.6741   2.7828   2.9360   3.3600   3.4556
     3.5404   3.6805   3.9047   3.9336

          k = 0.0000-2.5640 0.0000 ( 80580 PWs)   bands (ev):

  -103.1896-103.1896-103.1819-103.1819-102.8376-102.8375 -68.0803 -68.0802
   -68.0800 -68.0800 -63.7541 -63.7539 -63.7500 -63.7500 -63.6113 -63.6113
   -63.5846 -63.5846 -63.4796 -63.4794 -63.4573 -63.4572 -63.3415 -63.3414
   -63.3251 -63.3249 -63.1052 -63.1051 -34.6624 -34.6618 -34.6614 -34.6607
   -34.6231 -34.6226 -34.6206 -34.6202 -34.5968 -34.5965 -34.5950 -34.5948
   -11.2504 -11.2197 -11.1557 -11.1346 -11.1120 -11.0357 -10.9726 -10.9336
   -10.7475 -10.7126  -6.3406  -6.3098  -6.2722  -6.2298  -5.6434  -5.5541
    -5.1125  -5.1112  -4.8959  -4.8791  -4.0430  -4.0159  -3.9795  -3.9070
    -3.8274  -3.7843  -3.5069  -3.5005  -3.4982  -3.3938  -3.3463  -3.3421
    -3.3419  -3.2587  -3.2007  -3.0406  -2.9405  -2.8461  -2.8315  -2.8081
    -2.5472  -2.5107  -2.4184  -2.2683  -2.2216  -2.1614  -2.1200  -2.0119
    -1.9766  -1.9352  -1.8958  -1.8220  -1.7430  -1.7218  -1.6919  -1.5426
    -1.3155  -1.2182  -1.1947  -1.1854  -1.1830  -1.1329  -1.0861  -1.0014
    -0.9139  -0.8927  -0.7225  -0.7126  -0.5626  -0.4551   0.7076   0.7811
     1.3329   1.4090   1.4155   1.4375   1.7368   1.9170   2.1555   2.1851
     2.5752   2.7118   2.7605   2.7620   3.0190   3.0827   3.5576   3.6044
     3.6369   3.7003   3.7756   3.9321

          k =-0.5000 0.0000 0.0000 ( 80210 PWs)   bands (ev):

  -103.1954-103.1954-103.1763-103.1763-102.8376-102.8375 -68.0848 -68.0848
   -68.0842 -68.0842 -63.7570 -63.7570 -63.7464 -63.7464 -63.6187 -63.6186
   -63.5381 -63.5381 -63.5202 -63.5202 -63.4498 -63.4498 -63.3417 -63.3416
   -63.3253 -63.3252 -63.1018 -63.1017 -34.6402 -34.6402 -34.6383 -34.6383
   -34.6193 -34.6193 -34.6130 -34.6130 -34.5137 -34.5137 -34.5132 -34.5132
   -13.0070 -13.0069 -12.3936 -12.3936 -12.0955 -12.0955 -11.8392 -11.8392
   -11.5860 -11.5860  -6.1334  -6.1333  -5.8191  -5.8191  -5.4582  -5.4581
    -5.1139  -5.1139  -4.6498  -4.6498  -3.9547  -3.9547  -3.7759  -3.7758
    -3.5521  -3.5521  -3.3947  -3.3946  -3.2061  -3.2061  -2.9866  -2.9866
    -2.6244  -2.6243  -2.5228  -2.5227  -2.2889  -2.2889  -2.2074  -2.2074
    -1.9516  -1.9515  -1.9156  -1.9156  -1.8745  -1.8745  -1.6744  -1.6744
    -1.6002  -1.6002  -1.5625  -1.5625  -1.2065  -1.2065  -1.0141  -1.0141
    -0.8805  -0.8804  -0.6341  -0.6340  -0.5582  -0.5582  -0.3515  -0.3515
    -0.2152  -0.2151   0.0216   0.0216   0.2349   0.2349   0.6722   0.6723
     1.2338   1.2338   1.5718   1.5718   1.6151   1.6151   1.8643   1.8644
     2.4844   2.4844   2.6956   2.6956   3.0946   3.0946   3.6667   3.6668
     3.8224   3.8224   3.9821   3.9862

          k =-0.5000 0.5128 0.0000 ( 80314 PWs)   bands (ev):

  -103.1950-103.1950-103.1767-103.1767-102.8376-102.8375 -68.0844 -68.0844
   -68.0838 -68.0838 -63.7569 -63.7569 -63.7467 -63.7466 -63.6186 -63.6186
   -63.5463 -63.5463 -63.5127 -63.5127 -63.4501 -63.4501 -63.3415 -63.3415
   -63.3253 -63.3252 -63.1023 -63.1023 -34.6386 -34.6386 -34.6366 -34.6366
   -34.6175 -34.6175 -34.6116 -34.6116 -34.5277 -34.5277 -34.5271 -34.5271
   -12.8910 -12.8910 -12.2905 -12.2905 -12.0280 -12.0279 -11.7583 -11.7583
   -11.5230 -11.5229  -6.0233  -6.0233  -5.7013  -5.7013  -5.3434  -5.3433
    -5.0130  -5.0130  -4.5817  -4.5816  -4.0072  -4.0072  -3.7938  -3.7938
    -3.5271  -3.5271  -3.4645  -3.4645  -3.2989  -3.2988  -2.9390  -2.9390
    -2.6942  -2.6942  -2.6462  -2.6462  -2.5422  -2.5421  -2.1515  -2.1515
    -2.0346  -2.0346  -1.9576  -1.9576  -1.9141  -1.9141  -1.7964  -1.7964
    -1.6706  -1.6706  -1.5533  -1.5533  -1.2409  -1.2409  -1.1508  -1.1508
    -0.9864  -0.9864  -0.7970  -0.7970  -0.6457  -0.6457  -0.5195  -0.5195
    -0.3102  -0.3102  -0.1275  -0.1275   0.3261   0.3262   0.5874   0.5874
     1.2707   1.2708   1.4895   1.4896   1.5688   1.5688   1.6826   1.6826
     2.2689   2.2689   2.6556   2.6556   2.7909   2.7909   3.3894   3.3894
     3.5733   3.5733   3.9125   3.9128

          k =-0.5000 1.0256 0.0000 ( 80472 PWs)   bands (ev):

  -103.1939-103.1938-103.1778-103.1777-102.8376-102.8375 -68.0833 -68.0832
   -68.0827 -68.0827 -63.7564 -63.7564 -63.7474 -63.7474 -63.6177 -63.6176
   -63.5591 -63.5591 -63.5013 -63.5013 -63.4513 -63.4513 -63.3416 -63.3415
   -63.3253 -63.3252 -63.1033 -63.1032 -34.6344 -34.6344 -34.6323 -34.6323
   -34.6132 -34.6132 -34.6082 -34.6082 -34.5638 -34.5637 -34.5628 -34.5628
   -12.5574 -12.5573 -12.0000 -12.0000 -11.8390 -11.8390 -11.5364 -11.5364
   -11.3446 -11.3446  -5.7350  -5.7349  -5.3953  -5.3953  -5.0426  -5.0426
    -4.8173  -4.8173  -4.4653  -4.4653  -4.1583  -4.1583  -3.9840  -3.9840
    -3.6217  -3.6217  -3.5447  -3.5447  -3.4963  -3.4963  -3.1934  -3.1934
    -3.0695  -3.0695  -2.8363  -2.8363  -2.6272  -2.6271  -2.3846  -2.3845
    -2.3014  -2.3014  -2.2429  -2.2429  -2.0583  -2.0583  -1.9359  -1.9359
    -1.8145  -1.8145  -1.6695  -1.6695  -1.3979  -1.3979  -1.3318  -1.3317
    -1.1418  -1.1418  -1.0084  -1.0084  -0.8239  -0.8239  -0.7185  -0.7185
    -0.6059  -0.6059  -0.1602  -0.1601  -0.0283  -0.0282   0.8844   0.8844
     1.1938   1.1938   1.3918   1.3919   1.5362   1.5362   1.7464   1.7464
     1.9550   1.9550   2.4092   2.4092   2.7464   2.7464   3.0178   3.0178
     3.2314   3.2314   4.2430   4.2431

          k =-0.5000 1.5384 0.0000 ( 80488 PWs)   bands (ev):

  -103.1922-103.1922-103.1794-103.1793-102.8376-102.8375 -68.0819 -68.0818
   -68.0814 -68.0814 -63.7555 -63.7554 -63.7484 -63.7484 -63.6156 -63.6156
   -63.5712 -63.5712 -63.4907 -63.4906 -63.4533 -63.4533 -63.3414 -63.3413
   -63.3252 -63.3251 -63.1042 -63.1041 -34.6299 -34.6299 -34.6281 -34.6280
   -34.6167 -34.6166 -34.6131 -34.6131 -34.5990 -34.5989 -34.5961 -34.5961
   -12.0549 -12.0549 -11.6003 -11.6003 -11.5643 -11.5642 -11.2459 -11.2459
   -11.0846 -11.0846  -5.5247  -5.5247  -5.2310  -5.2310  -5.0900  -5.0900
    -4.8182  -4.8181  -4.5920  -4.5919  -4.3668  -4.3667  -4.0664  -4.0663
    -3.9198  -3.9198  -3.8141  -3.8140  -3.6087  -3.6087  -3.4114  -3.4114
    -3.0940  -3.0939  -3.0075  -3.0075  -2.8429  -2.8429  -2.7057  -2.7057
    -2.5394  -2.5394  -2.3597  -2.3596  -2.1656  -2.1656  -2.0410  -2.0409
    -1.9660  -1.9659  -1.8056  -1.8056  -1.5006  -1.5006  -1.3728  -1.3728
    -1.2371  -1.2371  -1.1215  -1.1214  -1.0366  -1.0366  -0.8661  -0.8661
    -0.7182  -0.7182  -0.4098  -0.4098  -0.2703  -0.2702   0.9356   0.9356
     1.3700   1.3701   1.4523   1.4524   1.6414   1.6414   1.8304   1.8304
     2.1091   2.1091   2.4061   2.4061   2.8252   2.8252   3.1426   3.1426
     3.3490   3.3490   4.2679   4.2679

          k =-0.5000 2.0512 0.0000 ( 80588 PWs)   bands (ev):

  -103.1905-103.1905-103.1811-103.1810-102.8376-102.8375 -68.0807 -68.0807
   -68.0804 -68.0804 -63.7546 -63.7546 -63.7496 -63.7496 -63.6128 -63.6128
   -63.5807 -63.5807 -63.4827 -63.4827 -63.4558 -63.4558 -63.3414 -63.3414
   -63.3252 -63.3251 -63.1049 -63.1048 -34.6490 -34.6490 -34.6479 -34.6478
   -34.6242 -34.6242 -34.6216 -34.6216 -34.5983 -34.5983 -34.5961 -34.5961
   -11.4968 -11.4968 -11.3314 -11.3313 -11.2123 -11.2123 -10.9987 -10.9986
   -10.8360 -10.8359  -6.0659  -6.0659  -5.8608  -5.8607  -5.3432  -5.3432
    -5.0236  -5.0236  -4.7202  -4.7202  -4.3286  -4.3286  -4.0159  -4.0158
    -3.8339  -3.8338  -3.6871  -3.6871  -3.4570  -3.4570  -3.3572  -3.3572
    -3.1837  -3.1837  -3.0669  -3.0669  -2.9903  -2.9903  -2.7614  -2.7614
    -2.5697  -2.5697  -2.3475  -2.3475  -2.2129  -2.2128  -2.1247  -2.1247
    -1.9980  -1.9980  -1.8709  -1.8709  -1.5618  -1.5617  -1.5232  -1.5232
    -1.2976  -1.2976  -1.2433  -1.2433  -1.1311  -1.1311  -0.9191  -0.9191
    -0.8524  -0.8524  -0.5352  -0.5351  -0.5002  -0.5001   0.7803   0.7803
     1.3534   1.3535   1.5916   1.5916   1.7299   1.7299   2.2224   2.2224
     2.4669   2.4669   2.5443   2.5443   2.8644   2.8644   3.4088   3.4088
     3.6416   3.6416   3.8941   3.8944

          k =-0.5000-2.5640 0.0000 ( 80652 PWs)   bands (ev):

  -103.1896-103.1896-103.1819-103.1819-102.8376-102.8375 -68.0803 -68.0802
   -68.0800 -68.0800 -63.7542 -63.7542 -63.7502 -63.7502 -63.6114 -63.6113
   -63.5846 -63.5846 -63.4795 -63.4795 -63.4572 -63.4572 -63.3414 -63.3413
   -63.3253 -63.3252 -63.1053 -63.1052 -34.6622 -34.6621 -34.6610 -34.6610
   -34.6229 -34.6228 -34.6204 -34.6203 -34.5966 -34.5966 -34.5949 -34.5949
   -11.2371 -11.2370 -11.1479 -11.1479 -11.0719 -11.0718 -10.9524 -10.9523
   -10.7280 -10.7279  -6.3843  -6.3842  -6.1778  -6.1778  -5.6090  -5.6090
    -5.1074  -5.1074  -4.9016  -4.9016  -4.0339  -4.0339  -3.9420  -3.9419
    -3.7548  -3.7548  -3.5923  -3.5922  -3.4566  -3.4565  -3.3974  -3.3974
    -3.2946  -3.2946  -3.0039  -3.0039  -2.8778  -2.8778  -2.8055  -2.8055
    -2.5054  -2.5054  -2.3527  -2.3527  -2.2563  -2.2563  -2.0789  -2.0789
    -1.9553  -1.9553  -1.8477  -1.8477  -1.7459  -1.7459  -1.5725  -1.5725
    -1.3062  -1.3062  -1.2179  -1.2178  -1.1435  -1.1434  -1.0269  -1.0269
    -0.9113  -0.9113  -0.7213  -0.7213  -0.4924  -0.4923   0.7488   0.7489
     1.3533   1.3534   1.5819   1.5820   1.6531   1.6531   2.3437   2.3437
     2.4487   2.4488   2.7625   2.7625   3.0404   3.0404   3.5919   3.5919
     3.6557   3.6557   3.9870   3.9871

     the Fermi energy is     0.3964 ev

!    total energy              =   -9109.75463270 Ry
     total all-electron energy =     -9109.754633 Ry
     estimated scf accuracy    <          4.5E-09 Ry
     smearing contrib. (-TS)   =      -0.00000101 Ry
     internal energy E=F+TS    =   -9109.75463169 Ry

     The total energy is F=E-TS. E is the sum of the following terms:
     one-electron contribution =  -17300.06291241 Ry
     hartree contribution      =    8510.89616075 Ry
     xc contribution           =    -365.95445220 Ry
     ewald contribution        =    6313.15703703 Ry
     one-center paw contrib.   =   -6267.79046485 Ry

     convergence has been achieved in  26 iterations

     negative rho (up, down):  6.635E-02 0.000E+00

     Forces acting on atoms (cartesian axes, Ry/au):

     atom    1 type  1   force =     0.01327464    0.04654324   -0.02171413
     atom    2 type  1   force =     0.01331340   -0.04654629    0.02172406
     atom    3 type  1   force =    -0.01330840    0.04655147   -0.02169232
     atom    4 type  1   force =    -0.01335989   -0.04655402    0.02171962
     atom    5 type  2   force =    -0.01334093    0.05292682   -0.01401329
     atom    6 type  2   force =    -0.01323953   -0.05290534    0.01402977
     atom    7 type  2   force =     0.01340077    0.05290492   -0.01404577
     atom    8 type  2   force =     0.01329252   -0.05288845    0.01405593
     atom    9 type  2   force =     0.00004589    0.02699435   -0.02398536
     atom   10 type  2   force =     0.00004241   -0.02699143    0.02402132
     atom   11 type  3   force =     0.01018368   -0.03539998   -0.04228998
     atom   12 type  3   force =     0.01018580    0.03539512    0.04227026
     atom   13 type  3   force =    -0.00503452    0.02097659   -0.03529797
     atom   14 type  3   force =    -0.00503646   -0.02098362    0.03527471
     atom   15 type  3   force =    -0.01014773   -0.03539973   -0.04229461
     atom   16 type  3   force =    -0.01014455    0.03539301    0.04227566
     atom   17 type  3   force =     0.00498991    0.02097540   -0.03529236
     atom   18 type  3   force =     0.00498653   -0.02098284    0.03527462
     atom   19 type  3   force =    -0.00005070    0.02270068   -0.03342131
     atom   20 type  3   force =    -0.00005285   -0.02270991    0.03340113

     Total force =     0.221916     Total SCF correction =     0.000331


     Computing stress (Cartesian axis) and pressure


     negative rho (up, down):  6.635E-02 0.000E+00
          total   stress  (Ry/bohr**3)                   (kbar)     P=       20.83
   0.00009666   0.00000000   0.00000000           14.22        0.00        0.00
   0.00000000   0.00022423  -0.00002680            0.00       32.99       -3.94
   0.00000000  -0.00002680   0.00010389            0.00       -3.94       15.28


     BFGS Geometry Optimization
     Energy error            =      0.0E+00 Ry
     Gradient error          =      5.3E-02 Ry/Bohr

     number of scf cycles    =   1
     number of bfgs steps    =   0

     energy             new  =   -9109.7546327032 Ry

     new trust radius        =       0.0563541963 bohr
     new conv_thr            =       0.0000000100 Ry


ATOMIC_POSITIONS (angstrom)
Ta              15.3988654660        0.9395531873       12.4323496130
Ta               6.5785956623        2.7201384432       12.6034922117
Ta               2.2581131096        0.9395575430       12.4321868796
Ta              11.0783835984        2.7201343546       12.6036500136
Ni              12.8573484410        0.9429312311       11.7542740826
Ni               4.0370940706        2.7167733808       13.2815681881
Ni               4.7995581063        0.9429196448       11.7539902555
Ni              13.6197947147        2.7167823174       13.2818390867
Ni               8.8283709487        0.9292083597       12.3555130915
Ni               0.0080993455        2.7304864311       12.6803213475
Te              14.2184313474        2.7260368207       10.5128778594
Te               5.3981119491        0.9336538569       14.5229405665
Te              10.5927689653        0.9260238952       10.5006549921
Te               1.7724849020        2.7336656287       14.5351615293
Te               3.4383187465        2.7260369532       10.5126521987
Te              12.2586212723        0.9336527398       14.5231638658
Te               7.0642589670        0.9260232696       10.5004953588
Te              15.8845406625        2.7336660379       14.5353336516
Te               0.0082720935        0.9269362443       10.8199332697
Te               8.8285299947        2.7327521149       14.2158529380



     Writing config-only to output data dir /ddn/data/physics/eamoujaes/2D-Ta2Ni3Te5/ELASTIC/C22/OUT/ta2ni3te5.save/ :
     XML data file
     NEW-OLD atomic charge density approx. for the potential

     negative rho (up, down):  6.507E-02 0.000E+00

     total cpu time spent up to now is     1121.4 secs

     Self-consistent Calculation

     iteration #  1     ecut=    60.00 Ry     beta= 0.20
     Davidson diagonalization with overlap
     ethr =  1.00E-06,  avg # of iterations = 13.3

     negative rho (up, down):  6.517E-02 0.000E+00

     total cpu time spent up to now is     1163.5 secs

     total energy              =   -9109.75495201 Ry
     estimated scf accuracy    <       0.10417602 Ry

     iteration #  2     ecut=    60.00 Ry     beta= 0.20
     Davidson diagonalization with overlap
     ethr =  4.74E-05,  avg # of iterations =  3.0

     negative rho (up, down):  6.526E-02 0.000E+00

     total cpu time spent up to now is     1200.5 secs

     total energy              =   -9109.76389474 Ry
     estimated scf accuracy    <       0.53396548 Ry

     iteration #  3     ecut=    60.00 Ry     beta= 0.20
     Davidson diagonalization with overlap
     ethr =  4.74E-05,  avg # of iterations =  2.0

     negative rho (up, down):  6.530E-02 0.000E+00

     total cpu time spent up to now is     1237.1 secs

     total energy              =   -9109.79333868 Ry
     estimated scf accuracy    <       0.02877895 Ry

     iteration #  4     ecut=    60.00 Ry     beta= 0.20
     Davidson diagonalization with overlap
     ethr =  1.31E-05,  avg # of iterations =  1.2

     negative rho (up, down):  6.544E-02 0.000E+00

     total cpu time spent up to now is     1273.4 secs

     total energy              =   -9109.79399801 Ry
     estimated scf accuracy    <       0.00541814 Ry

     iteration #  5     ecut=    60.00 Ry     beta= 0.20
     Davidson diagonalization with overlap
     ethr =  2.46E-06,  avg # of iterations =  2.1

     negative rho (up, down):  6.564E-02 0.000E+00

     total cpu time spent up to now is     1310.4 secs

     total energy              =   -9109.79324127 Ry
     estimated scf accuracy    <       0.00224700 Ry

     iteration #  6     ecut=    60.00 Ry     beta= 0.20
     Davidson diagonalization with overlap
     ethr =  1.02E-06,  avg # of iterations =  2.0

     negative rho (up, down):  6.567E-02 0.000E+00

     total cpu time spent up to now is     1347.1 secs

     total energy              =   -9109.79341177 Ry
     estimated scf accuracy    <       0.00052039 Ry

     iteration #  7     ecut=    60.00 Ry     beta= 0.20
     Davidson diagonalization with overlap
     ethr =  2.37E-07,  avg # of iterations =  2.3

     negative rho (up, down):  6.572E-02 0.000E+00

     total cpu time spent up to now is     1384.0 secs

     total energy              =   -9109.79338924 Ry
     estimated scf accuracy    <       0.00033378 Ry

     iteration #  8     ecut=    60.00 Ry     beta= 0.20
     Davidson diagonalization with overlap
     ethr =  1.52E-07,  avg # of iterations =  2.0

     negative rho (up, down):  6.575E-02 0.000E+00

     total cpu time spent up to now is     1420.7 secs

     total energy              =   -9109.79340286 Ry
     estimated scf accuracy    <       0.00004161 Ry

     iteration #  9     ecut=    60.00 Ry     beta= 0.20
     Davidson diagonalization with overlap
     ethr =  1.89E-08,  avg # of iterations =  2.9

     negative rho (up, down):  6.576E-02 0.000E+00

     total cpu time spent up to now is     1458.2 secs

     total energy              =   -9109.79340523 Ry
     estimated scf accuracy    <       0.00002575 Ry

     iteration # 10     ecut=    60.00 Ry     beta= 0.20
     Davidson diagonalization with overlap
     ethr =  1.17E-08,  avg # of iterations =  1.9

     negative rho (up, down):  6.578E-02 0.000E+00

     total cpu time spent up to now is     1495.1 secs

     total energy              =   -9109.79340426 Ry
     estimated scf accuracy    <       0.00002045 Ry

     iteration # 11     ecut=    60.00 Ry     beta= 0.20
     Davidson diagonalization with overlap
     ethr =  9.29E-09,  avg # of iterations =  2.0

     negative rho (up, down):  6.580E-02 0.000E+00

     total cpu time spent up to now is     1532.2 secs

     total energy              =   -9109.79340590 Ry
     estimated scf accuracy    <       0.00000780 Ry

     iteration # 12     ecut=    60.00 Ry     beta= 0.20
     Davidson diagonalization with overlap
     ethr =  3.55E-09,  avg # of iterations =  2.2

     negative rho (up, down):  6.580E-02 0.000E+00

     total cpu time spent up to now is     1569.3 secs

     total energy              =   -9109.79340642 Ry
     estimated scf accuracy    <       0.00000391 Ry

     iteration # 13     ecut=    60.00 Ry     beta= 0.20
     Davidson diagonalization with overlap
     ethr =  1.78E-09,  avg # of iterations =  2.0

     negative rho (up, down):  6.580E-02 0.000E+00

     total cpu time spent up to now is     1606.1 secs

     total energy              =   -9109.79340646 Ry
     estimated scf accuracy    <       0.00000149 Ry

     iteration # 14     ecut=    60.00 Ry     beta= 0.20
     Davidson diagonalization with overlap
     ethr =  6.79E-10,  avg # of iterations =  1.3

     negative rho (up, down):  6.579E-02 0.000E+00

     total cpu time spent up to now is     1643.3 secs

     total energy              =   -9109.79340644 Ry
     estimated scf accuracy    <       0.00000033 Ry

     iteration # 15     ecut=    60.00 Ry     beta= 0.20
     Davidson diagonalization with overlap
     ethr =  1.51E-10,  avg # of iterations =  2.1

     negative rho (up, down):  6.579E-02 0.000E+00

     total cpu time spent up to now is     1680.3 secs

     total energy              =   -9109.79340649 Ry
     estimated scf accuracy    <       0.00000013 Ry

     iteration # 16     ecut=    60.00 Ry     beta= 0.20
     Davidson diagonalization with overlap
     ethr =  6.04E-11,  avg # of iterations =  2.0

     negative rho (up, down):  6.579E-02 0.000E+00

     total cpu time spent up to now is     1717.8 secs

     total energy              =   -9109.79340652 Ry
     estimated scf accuracy    <       0.00000009 Ry

     iteration # 17     ecut=    60.00 Ry     beta= 0.20
     Davidson diagonalization with overlap
     ethr =  3.99E-11,  avg # of iterations =  2.0

     negative rho (up, down):  6.579E-02 0.000E+00

     total cpu time spent up to now is     1754.6 secs

     total energy              =   -9109.79340653 Ry
     estimated scf accuracy    <       0.00000002 Ry

     iteration # 18     ecut=    60.00 Ry     beta= 0.20
     Davidson diagonalization with overlap
     ethr =  7.91E-12,  avg # of iterations =  4.5

     negative rho (up, down):  6.579E-02 0.000E+00

     total cpu time spent up to now is     1792.1 secs

     total energy              =   -9109.79340653 Ry
     estimated scf accuracy    <       0.00000004 Ry

     iteration # 19     ecut=    60.00 Ry     beta= 0.20
     Davidson diagonalization with overlap
     ethr =  7.91E-12,  avg # of iterations =  1.1

     negative rho (up, down):  6.579E-02 0.000E+00

     total cpu time spent up to now is     1828.7 secs

     total energy              =   -9109.79340653 Ry
     estimated scf accuracy    <       0.00000001 Ry

     iteration # 20     ecut=    60.00 Ry     beta= 0.20
     Davidson diagonalization with overlap
     ethr =  6.42E-12,  avg # of iterations =  1.0

     negative rho (up, down):  6.579E-02 0.000E+00

     total cpu time spent up to now is     1865.2 secs

     End of self-consistent calculation

          k = 0.0000 0.0000 0.0000 ( 80199 PWs)   bands (ev):

  -103.1603-103.1603-103.1437-103.1437-102.8218-102.8217 -68.1068 -68.1068
   -68.1063 -68.1062 -63.7193 -63.7191 -63.7101 -63.7096 -63.5722 -63.5721
   -63.5015 -63.5014 -63.4878 -63.4878 -63.4235 -63.4235 -63.3256 -63.3255
   -63.3147 -63.3143 -63.0773 -63.0772 -34.6535 -34.6525 -34.6508 -34.6505
   -34.6288 -34.6253 -34.6251 -34.6210 -34.5213 -34.5211 -34.5208 -34.5207
   -13.0322 -12.7396 -12.6275 -12.1529 -12.1373 -11.9099 -11.8233 -11.7918
   -11.7318 -11.4583  -6.1999  -5.9428  -5.7805  -5.6742  -5.4731  -5.4710
    -5.4509  -4.7931  -4.6637  -4.2276  -4.1578  -3.8147  -3.7642  -3.7561
    -3.5796  -3.5697  -3.3509  -3.3178  -3.0333  -2.8969  -2.8882  -2.8740
    -2.6315  -2.5567  -2.5044  -2.3720  -2.3336  -2.2416  -2.2037  -2.1794
    -2.0375  -1.9593  -1.9204  -1.8754  -1.8305  -1.7526  -1.7443  -1.6694
    -1.5703  -1.5437  -1.5038  -1.4005  -1.2339  -1.1859  -1.0534  -0.9846
    -0.9667  -0.8002  -0.7017  -0.7010  -0.4036  -0.3925  -0.3552  -0.3233
    -0.1792  -0.1500  -0.0421   0.0039   0.2360   0.2657   0.5047   0.7781
     0.9719   1.3806   1.4756   1.6524   1.6888   1.6891   1.7476   1.9295
     2.3869   2.4958   2.5373   2.9130   2.9484   3.1816   3.5001   3.6889
     3.8188   3.9087   3.9094   4.0503

          k = 0.0000 0.5128 0.0000 ( 80314 PWs)   bands (ev):

  -103.1599-103.1599-103.1441-103.1441-102.8217-102.8217 -68.1064 -68.1064
   -68.1059 -68.1058 -63.7190 -63.7189 -63.7103 -63.7099 -63.5723 -63.5722
   -63.5099 -63.5098 -63.4799 -63.4798 -63.4239 -63.4238 -63.3255 -63.3255
   -63.3146 -63.3143 -63.0779 -63.0778 -34.6519 -34.6509 -34.6493 -34.6488
   -34.6269 -34.6237 -34.6234 -34.6196 -34.5351 -34.5351 -34.5346 -34.5346
   -12.9156 -12.6258 -12.5204 -12.0678 -12.0602 -11.8299 -11.7599 -11.7107
   -11.6499 -11.3998  -6.0882  -5.8363  -5.6599  -5.5468  -5.3784  -5.3665
    -5.3275  -4.6903  -4.5761  -4.1693  -4.1250  -3.8886  -3.8070  -3.7798
    -3.6157  -3.5737  -3.4560  -3.3662  -3.0329  -3.0006  -2.9503  -2.7166
    -2.7042  -2.6335  -2.5955  -2.5840  -2.5475  -2.4854  -2.1593  -2.1116
    -2.0666  -2.0482  -1.9566  -1.9013  -1.8693  -1.8142  -1.8019  -1.7542
    -1.7027  -1.6003  -1.5170  -1.3969  -1.3390  -1.2131  -1.1357  -1.1144
    -1.0156  -1.0074  -0.7891  -0.7047  -0.6320  -0.6204  -0.5603  -0.4464
    -0.3414  -0.2997  -0.1363  -0.0551   0.2845   0.3261   0.4688   0.6961
     1.0643   1.3756   1.3827   1.4424   1.5141   1.5990   1.6412   1.8685
     2.2651   2.3055   2.5713   2.6608   2.7503   2.9187   3.2649   3.4425
     3.5267   3.6372   3.7444   3.8956

          k = 0.0000 1.0256 0.0000 ( 80474 PWs)   bands (ev):

  -103.1588-103.1588-103.1452-103.1452-102.8217-102.8217 -68.1053 -68.1053
   -68.1048 -68.1048 -63.7185 -63.7184 -63.7110 -63.7108 -63.5714 -63.5713
   -63.5226 -63.5226 -63.4684 -63.4683 -63.4252 -63.4252 -63.3255 -63.3254
   -63.3146 -63.3144 -63.0788 -63.0788 -34.6478 -34.6468 -34.6452 -34.6446
   -34.6220 -34.6194 -34.6191 -34.6160 -34.5712 -34.5709 -34.5707 -34.5704
   -12.5794 -12.2994 -12.2147 -11.8724 -11.8077 -11.6258 -11.5654 -11.4746
   -11.4234 -11.2393  -5.7998  -5.5496  -5.3472  -5.2665  -5.1284  -5.0341
    -5.0133  -4.4911  -4.4612  -4.2323  -4.0344  -4.0223  -3.8968  -3.8927
    -3.8444  -3.7559  -3.7094  -3.5015  -3.3427  -3.1856  -3.0912  -3.0615
    -3.0379  -2.9415  -2.8734  -2.6963  -2.6150  -2.4582  -2.4230  -2.3730
    -2.3042  -2.2471  -2.2116  -2.1399  -2.0658  -2.0101  -1.9201  -1.8995
    -1.7902  -1.7369  -1.6684  -1.5677  -1.5347  -1.3792  -1.3358  -1.3184
    -1.2081  -1.0481  -0.9425  -0.8230  -0.8103  -0.7808  -0.7707  -0.7371
    -0.7345  -0.5059  -0.2443  -0.1388  -0.0535  -0.0421   0.8159   1.0333
     1.0771   1.2268   1.2469   1.3482   1.4264   1.4841   1.6258   1.8336
     2.1452   2.1794   2.2689   2.4630   2.6909   2.7228   2.9452   2.9764
     3.1400   3.3415   4.1322   4.2902

          k = 0.0000 1.5384 0.0000 ( 80594 PWs)   bands (ev):

  -103.1571-103.1571-103.1469-103.1469-102.8217-102.8217 -68.1039 -68.1039
   -68.1036 -68.1035 -63.7177 -63.7176 -63.7122 -63.7120 -63.5689 -63.5688
   -63.5349 -63.5348 -63.4578 -63.4578 -63.4277 -63.4276 -63.3254 -63.3254
   -63.3146 -63.3145 -63.0798 -63.0797 -34.6430 -34.6421 -34.6404 -34.6398
   -34.6215 -34.6200 -34.6190 -34.6174 -34.6109 -34.6091 -34.6086 -34.6070
   -12.0699 -11.8139 -11.7650 -11.5930 -11.4738 -11.3961 -11.2504 -11.1234
   -11.1187 -11.0238  -5.5941  -5.3113  -5.2668  -5.1820  -4.9811  -4.8943
    -4.8190  -4.6953  -4.6370  -4.5229  -4.3194  -4.2423  -4.1999  -4.0530
    -3.9334  -3.8805  -3.7672  -3.6527  -3.6511  -3.4166  -3.3614  -3.3461
    -3.2686  -2.9824  -2.9099  -2.8810  -2.8548  -2.7925  -2.6152  -2.5835
    -2.5329  -2.4499  -2.4393  -2.2066  -2.1428  -2.0864  -2.0616  -1.9636
    -1.9399  -1.8986  -1.8543  -1.6408  -1.6214  -1.4442  -1.4077  -1.3277
    -1.2144  -1.2137  -1.1491  -1.1024  -0.9633  -0.9555  -0.9390  -0.8723
    -0.7087  -0.6141  -0.4930  -0.3470  -0.3250  -0.2440   0.9182   1.0372
     1.1515   1.2219   1.2663   1.5119   1.6739   1.6993   1.8370   1.9066
     2.1786   2.2151   2.2514   2.5440   2.6149   2.8779   3.0006   3.0592
     3.3992   3.4417   4.0443   4.1919

          k = 0.0000 2.0512 0.0000 ( 80630 PWs)   bands (ev):

  -103.1550-103.1550-103.1489-103.1489-102.8217-102.8217 -68.1028 -68.1027
   -68.1025 -68.1025 -63.7166 -63.7165 -63.7133 -63.7133 -63.5649 -63.5648
   -63.5454 -63.5453 -63.4491 -63.4490 -63.4311 -63.4310 -63.3254 -63.3253
   -63.3145 -63.3145 -63.0805 -63.0804 -34.6535 -34.6530 -34.6526 -34.6521
   -34.6380 -34.6374 -34.6353 -34.6348 -34.6089 -34.6080 -34.6071 -34.6061
   -11.4907 -11.3508 -11.3031 -11.2496 -11.2125 -11.1741 -10.9671 -10.9111
   -10.8231 -10.7734  -5.9719  -5.9482  -5.9158  -5.8087  -5.3038  -5.2376
    -4.9954  -4.9138  -4.7772  -4.6022  -4.2779  -4.2700  -4.1188  -3.8438
    -3.8147  -3.6911  -3.6651  -3.6064  -3.4477  -3.4395  -3.3742  -3.3254
    -3.2168  -3.1492  -3.1308  -3.1150  -2.8936  -2.8074  -2.6718  -2.6405
    -2.5646  -2.4869  -2.4529  -2.2056  -2.1643  -2.0902  -2.0664  -2.0088
    -1.9899  -1.9635  -1.9193  -1.7290  -1.6431  -1.6099  -1.4703  -1.4483
    -1.2909  -1.2705  -1.2253  -1.1990  -1.1249  -1.0751  -0.9963  -0.9288
    -0.7360  -0.7341  -0.6369  -0.5430  -0.4762  -0.4566   0.7236   0.8204
     1.2638   1.3366   1.3640   1.4371   1.7949   2.0393   2.0500   2.2341
     2.3741   2.5246   2.5696   2.6539   2.7679   2.9154   3.3270   3.4382
     3.5123   3.6835   3.8439   3.9009

          k = 0.0000-2.5640 0.0000 ( 80580 PWs)   bands (ev):

  -103.1537-103.1537-103.1502-103.1502-102.8217-102.8217 -68.1023 -68.1023
   -68.1022 -68.1021 -63.7157 -63.7156 -63.7139 -63.7139 -63.5615 -63.5615
   -63.5508 -63.5508 -63.4448 -63.4447 -63.4336 -63.4335 -63.3254 -63.3254
   -63.3143 -63.3143 -63.0807 -63.0806 -34.6666 -34.6663 -34.6656 -34.6652
   -34.6366 -34.6362 -34.6339 -34.6337 -34.6069 -34.6066 -34.6051 -34.6049
   -11.1965 -11.1765 -11.0755 -11.0596 -11.0495 -10.9847 -10.9537 -10.9114
   -10.6927 -10.6691  -6.2658  -6.2372  -6.2166  -6.1903  -5.5927  -5.5300
    -5.0720  -5.0674  -4.8345  -4.8273  -3.9978  -3.9828  -3.9173  -3.8682
    -3.7937  -3.7603  -3.4524  -3.4496  -3.4306  -3.3565  -3.3404  -3.3292
    -3.3178  -3.2585  -3.1322  -2.9971  -2.8546  -2.8074  -2.7839  -2.7663
    -2.4699  -2.4673  -2.3174  -2.2035  -2.1984  -2.1412  -2.0340  -1.9700
    -1.9500  -1.9364  -1.8387  -1.8064  -1.7151  -1.6794  -1.6353  -1.5569
    -1.2773  -1.2320  -1.1658  -1.1619  -1.1545  -1.1248  -1.0319  -0.9826
    -0.8785  -0.8643  -0.7145  -0.7092  -0.5397  -0.4697   0.7164   0.7478
     1.2929   1.3430   1.4091   1.4184   1.7566   1.8584   2.1248   2.1510
     2.5798   2.6703   2.7301   2.7323   2.9920   3.0460   3.5872   3.6290
     3.6585   3.7248   3.7729   3.8490

          k =-0.5000 0.0000 0.0000 ( 80210 PWs)   bands (ev):

  -103.1603-103.1603-103.1437-103.1437-102.8218-102.8217 -68.1068 -68.1068
   -68.1063 -68.1063 -63.7191 -63.7191 -63.7100 -63.7100 -63.5722 -63.5722
   -63.5013 -63.5013 -63.4878 -63.4878 -63.4234 -63.4234 -63.3256 -63.3255
   -63.3146 -63.3145 -63.0772 -63.0772 -34.6530 -34.6530 -34.6506 -34.6506
   -34.6278 -34.6278 -34.6223 -34.6223 -34.5212 -34.5212 -34.5208 -34.5208
   -12.9426 -12.9426 -12.3409 -12.3409 -12.0628 -12.0628 -11.8073 -11.8073
   -11.5483 -11.5483  -6.1063  -6.1063  -5.7820  -5.7819  -5.4251  -5.4251
    -5.0586  -5.0586  -4.5887  -4.5887  -3.8983  -3.8983  -3.7007  -3.7007
    -3.4876  -3.4876  -3.3344  -3.3344  -3.1572  -3.1572  -2.8916  -2.8916
    -2.5754  -2.5754  -2.4670  -2.4670  -2.2323  -2.2323  -2.1614  -2.1614
    -1.9109  -1.9109  -1.9003  -1.9003  -1.8575  -1.8574  -1.6560  -1.6560
    -1.5691  -1.5691  -1.5436  -1.5436  -1.1939  -1.1939  -0.9913  -0.9913
    -0.8802  -0.8802  -0.5764  -0.5764  -0.5207  -0.5207  -0.3286  -0.3286
    -0.1672  -0.1672  -0.0234  -0.0234   0.2479   0.2479   0.6480   0.6481
     1.1896   1.1896   1.5619   1.5620   1.5805   1.5806   1.8480   1.8480
     2.4928   2.4928   2.6698   2.6698   3.0812   3.0813   3.6404   3.6405
     3.8271   3.8272   3.9794   3.9795

          k =-0.5000 0.5128 0.0000 ( 80314 PWs)   bands (ev):

  -103.1599-103.1599-103.1441-103.1441-102.8217-102.8217 -68.1064 -68.1064
   -68.1059 -68.1059 -63.7190 -63.7190 -63.7102 -63.7102 -63.5722 -63.5722
   -63.5099 -63.5099 -63.4798 -63.4798 -63.4238 -63.4238 -63.3255 -63.3254
   -63.3146 -63.3145 -63.0778 -63.0778 -34.6515 -34.6514 -34.6490 -34.6490
   -34.6260 -34.6260 -34.6208 -34.6208 -34.5351 -34.5351 -34.5346 -34.5346
   -12.8273 -12.8273 -12.2383 -12.2382 -11.9939 -11.9938 -11.7265 -11.7265
   -11.4838 -11.4838  -5.9948  -5.9948  -5.6633  -5.6632  -5.3111  -5.3111
    -4.9571  -4.9570  -4.5185  -4.5185  -3.9424  -3.9423  -3.7231  -3.7231
    -3.4592  -3.4592  -3.4026  -3.4026  -3.2457  -3.2457  -2.8646  -2.8646
    -2.6253  -2.6253  -2.5981  -2.5980  -2.4953  -2.4953  -2.1050  -2.1050
    -1.9797  -1.9796  -1.9243  -1.9243  -1.8760  -1.8760  -1.7790  -1.7790
    -1.6604  -1.6604  -1.5528  -1.5528  -1.2235  -1.2235  -1.1083  -1.1083
    -0.9742  -0.9742  -0.7657  -0.7657  -0.6199  -0.6199  -0.5049  -0.5049
    -0.3317  -0.3317  -0.1039  -0.1038   0.3241   0.3242   0.5751   0.5752
     1.2412   1.2412   1.4611   1.4611   1.5309   1.5309   1.6671   1.6671
     2.2668   2.2668   2.6433   2.6433   2.7683   2.7683   3.3825   3.3825
     3.5591   3.5591   3.8954   3.8955

          k =-0.5000 1.0256 0.0000 ( 80472 PWs)   bands (ev):

  -103.1588-103.1588-103.1452-103.1452-102.8217-102.8217 -68.1053 -68.1053
   -68.1048 -68.1048 -63.7185 -63.7185 -63.7110 -63.7110 -63.5713 -63.5713
   -63.5225 -63.5225 -63.4684 -63.4684 -63.4251 -63.4251 -63.3255 -63.3254
   -63.3146 -63.3145 -63.0788 -63.0787 -34.6474 -34.6474 -34.6449 -34.6448
   -34.6213 -34.6212 -34.6170 -34.6170 -34.5711 -34.5711 -34.5705 -34.5705
   -12.4955 -12.4955 -11.9491 -11.9491 -11.8004 -11.8004 -11.5043 -11.5043
   -11.3014 -11.3014  -5.7016  -5.7016  -5.3534  -5.3534  -5.0098  -5.0098
    -4.7548  -4.7548  -4.3905  -4.3905  -4.1000  -4.0999  -3.9067  -3.9067
    -3.5565  -3.5565  -3.4943  -3.4943  -3.4487  -3.4487  -3.1380  -3.1380
    -3.0172  -3.0172  -2.7772  -2.7772  -2.5636  -2.5635  -2.3667  -2.3667
    -2.2353  -2.2353  -2.2065  -2.2065  -2.0087  -2.0087  -1.9103  -1.9103
    -1.7810  -1.7810  -1.6555  -1.6555  -1.3935  -1.3935  -1.3096  -1.3096
    -1.1203  -1.1202  -0.9869  -0.9869  -0.8259  -0.8258  -0.6916  -0.6916
    -0.6106  -0.6106  -0.1606  -0.1606  -0.0340  -0.0340   0.8853   0.8854
     1.1785   1.1786   1.3773   1.3774   1.4764   1.4764   1.7452   1.7453
     1.9385   1.9385   2.3889   2.3890   2.7218   2.7218   2.9973   2.9973
     3.2032   3.2032   4.2245   4.2246

          k =-0.5000 1.5384 0.0000 ( 80488 PWs)   bands (ev):

  -103.1571-103.1571-103.1469-103.1469-102.8217-102.8217 -68.1039 -68.1039
   -68.1036 -68.1035 -63.7175 -63.7175 -63.7120 -63.7120 -63.5688 -63.5688
   -63.5348 -63.5348 -63.4577 -63.4577 -63.4276 -63.4276 -63.3253 -63.3253
   -63.3144 -63.3144 -63.0797 -63.0796 -34.6426 -34.6426 -34.6401 -34.6401
   -34.6210 -34.6210 -34.6180 -34.6180 -34.6103 -34.6103 -34.6075 -34.6075
   -11.9955 -11.9955 -11.5556 -11.5556 -11.5131 -11.5131 -11.2117 -11.2117
   -11.0380 -11.0379  -5.4774  -5.4774  -5.1561  -5.1561  -5.0395  -5.0395
    -4.7691  -4.7691  -4.5280  -4.5280  -4.3178  -4.3178  -4.0373  -4.0372
    -3.8792  -3.8791  -3.7579  -3.7579  -3.5469  -3.5468  -3.3715  -3.3715
    -3.0305  -3.0305  -2.9721  -2.9721  -2.8243  -2.8242  -2.6593  -2.6593
    -2.4779  -2.4778  -2.3038  -2.3038  -2.1086  -2.1086  -2.0128  -2.0128
    -1.9239  -1.9239  -1.7885  -1.7885  -1.4651  -1.4651  -1.3564  -1.3564
    -1.2308  -1.2308  -1.1047  -1.1046  -1.0208  -1.0208  -0.8436  -0.8436
    -0.7105  -0.7105  -0.4115  -0.4115  -0.2707  -0.2707   0.9294   0.9295
     1.3503   1.3504   1.4369   1.4369   1.6314   1.6314   1.8275   1.8275
     2.0774   2.0775   2.3725   2.3725   2.7917   2.7917   3.1191   3.1191
     3.3148   3.3148   4.2483   4.2483

          k =-0.5000 2.0512 0.0000 ( 80588 PWs)   bands (ev):

  -103.1550-103.1550-103.1489-103.1489-102.8217-102.8217 -68.1027 -68.1027
   -68.1025 -68.1025 -63.7165 -63.7165 -63.7132 -63.7132 -63.5648 -63.5648
   -63.5453 -63.5453 -63.4490 -63.4490 -63.4310 -63.4310 -63.3254 -63.3253
   -63.3145 -63.3144 -63.0804 -63.0804 -34.6533 -34.6533 -34.6523 -34.6523
   -34.6377 -34.6377 -34.6350 -34.6350 -34.6086 -34.6086 -34.6065 -34.6065
   -11.4397 -11.4397 -11.2796 -11.2796 -11.1567 -11.1567 -10.9639 -10.9639
   -10.7879 -10.7879  -6.0007  -6.0007  -5.8018  -5.8017  -5.3012  -5.3012
    -4.9651  -4.9651  -4.6717  -4.6716  -4.2873  -4.2873  -3.9710  -3.9709
    -3.8158  -3.8158  -3.6332  -3.6332  -3.4121  -3.4120  -3.3142  -3.3141
    -3.1671  -3.1671  -3.0308  -3.0307  -2.9350  -2.9349  -2.6999  -2.6999
    -2.5150  -2.5150  -2.2953  -2.2953  -2.1439  -2.1439  -2.0834  -2.0834
    -1.9786  -1.9786  -1.8358  -1.8358  -1.5455  -1.5455  -1.4775  -1.4775
    -1.2912  -1.2912  -1.2195  -1.2195  -1.1149  -1.1149  -0.8881  -0.8881
    -0.8429  -0.8429  -0.5220  -0.5220  -0.4955  -0.4955   0.7682   0.7683
     1.3159   1.3160   1.5747   1.5747   1.7205   1.7205   2.2071   2.2072
     2.4544   2.4545   2.4972   2.4973   2.8501   2.8501   3.3787   3.3788
     3.6248   3.6248   3.8751   3.8752

          k =-0.5000-2.5640 0.0000 ( 80652 PWs)   bands (ev):

  -103.1537-103.1537-103.1502-103.1502-102.8217-102.8217 -68.1023 -68.1023
   -68.1022 -68.1021 -63.7159 -63.7159 -63.7141 -63.7141 -63.5616 -63.5616
   -63.5509 -63.5509 -63.4448 -63.4448 -63.4335 -63.4335 -63.3253 -63.3253
   -63.3145 -63.3145 -63.0807 -63.0807 -34.6665 -34.6665 -34.6654 -34.6654
   -34.6364 -34.6364 -34.6338 -34.6338 -34.6067 -34.6067 -34.6050 -34.6050
   -11.1874 -11.1873 -11.0717 -11.0717 -11.0143 -11.0143 -10.9320 -10.9320
   -10.6791 -10.6791  -6.3221  -6.3220  -6.1163  -6.1162  -5.5745  -5.5745
    -5.0623  -5.0623  -4.8484  -4.8484  -3.9784  -3.9784  -3.9163  -3.9162
    -3.7104  -3.7104  -3.5539  -3.5539  -3.4054  -3.4053  -3.3684  -3.3684
    -3.2773  -3.2773  -2.9604  -2.9604  -2.8204  -2.8204  -2.7603  -2.7603
    -2.4305  -2.4305  -2.3032  -2.3031  -2.2038  -2.2037  -2.0213  -2.0213
    -1.9320  -1.9320  -1.8174  -1.8174  -1.7323  -1.7323  -1.5198  -1.5198
    -1.3065  -1.3065  -1.1954  -1.1954  -1.1160  -1.1160  -1.0044  -1.0043
    -0.8834  -0.8834  -0.7056  -0.7056  -0.4919  -0.4919   0.7371   0.7372
     1.3121   1.3122   1.5706   1.5706   1.6168   1.6168   2.3393   2.3393
     2.4076   2.4076   2.7233   2.7233   3.0168   3.0168   3.6225   3.6225
     3.6691   3.6691   3.9777   3.9777

     the Fermi energy is     0.3995 ev

!    total energy              =   -9109.79340653 Ry
     total all-electron energy =     -9109.793407 Ry
     estimated scf accuracy    <          3.8E-09 Ry
     smearing contrib. (-TS)   =      -0.00000036 Ry
     internal energy E=F+TS    =   -9109.79340617 Ry

     The total energy is F=E-TS. E is the sum of the following terms:
     one-electron contribution =  -17244.38792644 Ry
     hartree contribution      =    8483.16769233 Ry
     xc contribution           =    -365.75207498 Ry
     ewald contribution        =    6284.96318061 Ry
     one-center paw contrib.   =   -6267.78427769 Ry

     convergence has been achieved in  20 iterations

     negative rho (up, down):  6.579E-02 0.000E+00

     Forces acting on atoms (cartesian axes, Ry/au):

     atom    1 type  1   force =     0.00749051    0.02630743   -0.01193321
     atom    2 type  1   force =     0.00749733   -0.02631026    0.01193146
     atom    3 type  1   force =    -0.00750058    0.02630607   -0.01191530
     atom    4 type  1   force =    -0.00752449   -0.02630696    0.01190670
     atom    5 type  2   force =    -0.00683990    0.02637615   -0.00985285
     atom    6 type  2   force =    -0.00681303   -0.02639230    0.00983758
     atom    7 type  2   force =     0.00684726    0.02638559   -0.00983997
     atom    8 type  2   force =     0.00683820   -0.02638849    0.00984451
     atom    9 type  2   force =     0.00003686    0.01799490   -0.01620166
     atom   10 type  2   force =     0.00004521   -0.01798534    0.01618814
     atom   11 type  3   force =     0.00608801   -0.01932492   -0.02938478
     atom   12 type  3   force =     0.00610260    0.01933148    0.02939417
     atom   13 type  3   force =    -0.00161609    0.01260931   -0.02068385
     atom   14 type  3   force =    -0.00161187   -0.01260929    0.02068727
     atom   15 type  3   force =    -0.00605834   -0.01932503   -0.02938490
     atom   16 type  3   force =    -0.00606737    0.01933145    0.02939427
     atom   17 type  3   force =     0.00158988    0.01261001   -0.02068204
     atom   18 type  3   force =     0.00157842   -0.01260946    0.02068310
     atom   19 type  3   force =    -0.00003953    0.01533343   -0.02439608
     atom   20 type  3   force =    -0.00004307   -0.01533377    0.02440742

     Total force =     0.131183     Total SCF correction =     0.000258


     Computing stress (Cartesian axis) and pressure


     negative rho (up, down):  6.579E-02 0.000E+00
          total   stress  (Ry/bohr**3)                   (kbar)     P=       15.67
   0.00007566  -0.00000000  -0.00000000           11.13       -0.00       -0.00
  -0.00000000   0.00018832  -0.00001739           -0.00       27.70       -2.56
  -0.00000000  -0.00001739   0.00005565           -0.00       -2.56        8.19

     Energy error            =      3.9E-02 Ry
     Gradient error          =      2.9E-02 Ry/Bohr

     number of scf cycles    =   2
     number of bfgs steps    =   1

     energy             old  =   -9109.7546327032 Ry
     energy             new  =   -9109.7934065293 Ry

     CASE: energy            _new < energy            _old

     new trust radius        =       0.0619896159 bohr
     new conv_thr            =       0.0000000029 Ry


ATOMIC_POSITIONS (angstrom)
Ta              15.4057665957        0.9637896785       12.4213483465
Ta               6.5855034093        2.6958993623       12.6144920301
Ta               2.2512025050        0.9637929169       12.4212019884
Ta              11.0714508499        2.6958981472       12.6146275063
Ni              12.8510316446        0.9673084925       11.7452391390
Ni               4.0308027015        2.6923818657       13.2905896047
Ni               4.8058822556        0.9673051223       11.7449664913
Ni              13.6261093786        2.6923944340       13.2908670654
Ni               8.8284046690        0.9457267999       12.3406447002
Ni               0.0081405355        2.7139766288       12.6951780252
Te              14.2240328390        2.7082182027       10.4859262146
Te               5.4037265967        0.9514783183       14.5499004144
Te              10.5912531854        0.9376241218       10.4816154149
Te               1.7709728951        2.7220653319       14.5542038957
Te               3.4327443821        2.7082182370       10.4857003851
Te              12.2530388217        0.9514771520       14.5501238736
Te               7.0657506203        0.9376241066       10.4814574796
Te              15.8860219611        2.7220655997       14.5543722693
Te               0.0082359163        0.9410078574       10.7975781328
Te               8.8284906010        2.7186800786       14.2382180227



     Writing config-only to output data dir /ddn/data/physics/eamoujaes/2D-Ta2Ni3Te5/ELASTIC/C22/OUT/ta2ni3te5.save/ :
     XML data file
     NEW-OLD atomic charge density approx. for the potential

     negative rho (up, down):  6.439E-02 0.000E+00

     total cpu time spent up to now is     1959.6 secs

     Self-consistent Calculation

     iteration #  1     ecut=    60.00 Ry     beta= 0.20
     Davidson diagonalization with overlap
     c_bands:  2 eigenvalues not converged
     ethr =  1.00E-06,  avg # of iterations = 13.6

     negative rho (up, down):  6.454E-02 0.000E+00

     total cpu time spent up to now is     2001.6 secs

     total energy              =   -9109.78661130 Ry
     estimated scf accuracy    <       0.07639792 Ry

     iteration #  2     ecut=    60.00 Ry     beta= 0.20
     Davidson diagonalization with overlap
     ethr =  3.47E-05,  avg # of iterations =  3.2

     negative rho (up, down):  6.463E-02 0.000E+00

     total cpu time spent up to now is     2038.6 secs

     total energy              =   -9109.79812214 Ry
     estimated scf accuracy    <       0.29244093 Ry

     iteration #  3     ecut=    60.00 Ry     beta= 0.20
     Davidson diagonalization with overlap
     ethr =  3.47E-05,  avg # of iterations =  1.9

     negative rho (up, down):  6.468E-02 0.000E+00

     total cpu time spent up to now is     2076.1 secs

     total energy              =   -9109.81459300 Ry
     estimated scf accuracy    <       0.02116199 Ry

     iteration #  4     ecut=    60.00 Ry     beta= 0.20
     Davidson diagonalization with overlap
     ethr =  9.62E-06,  avg # of iterations =  1.8

     negative rho (up, down):  6.485E-02 0.000E+00

     total cpu time spent up to now is     2112.8 secs

     total energy              =   -9109.81481658 Ry
     estimated scf accuracy    <       0.00468915 Ry

     iteration #  5     ecut=    60.00 Ry     beta= 0.20
     Davidson diagonalization with overlap
     ethr =  2.13E-06,  avg # of iterations =  2.2

     negative rho (up, down):  6.506E-02 0.000E+00

     total cpu time spent up to now is     2149.9 secs

     total energy              =   -9109.81438102 Ry
     estimated scf accuracy    <       0.00136057 Ry

     iteration #  6     ecut=    60.00 Ry     beta= 0.20
     Davidson diagonalization with overlap
     ethr =  6.18E-07,  avg # of iterations =  2.0

     negative rho (up, down):  6.515E-02 0.000E+00

     total cpu time spent up to now is     2187.2 secs

     total energy              =   -9109.81447584 Ry
     estimated scf accuracy    <       0.00028650 Ry

     iteration #  7     ecut=    60.00 Ry     beta= 0.20
     Davidson diagonalization with overlap
     ethr =  1.30E-07,  avg # of iterations =  3.0

     negative rho (up, down):  6.517E-02 0.000E+00

     total cpu time spent up to now is     2224.3 secs

     total energy              =   -9109.81449451 Ry
     estimated scf accuracy    <       0.00019061 Ry

     iteration #  8     ecut=    60.00 Ry     beta= 0.20
     Davidson diagonalization with overlap
     ethr =  8.66E-08,  avg # of iterations =  1.2

     negative rho (up, down):  6.521E-02 0.000E+00

     total cpu time spent up to now is     2261.1 secs

     total energy              =   -9109.81449567 Ry
     estimated scf accuracy    <       0.00008055 Ry

     iteration #  9     ecut=    60.00 Ry     beta= 0.20
     Davidson diagonalization with overlap
     ethr =  3.66E-08,  avg # of iterations =  1.9

     negative rho (up, down):  6.525E-02 0.000E+00

     total cpu time spent up to now is     2298.2 secs

     total energy              =   -9109.81449746 Ry
     estimated scf accuracy    <       0.00002489 Ry

     iteration # 10     ecut=    60.00 Ry     beta= 0.20
     Davidson diagonalization with overlap
     ethr =  1.13E-08,  avg # of iterations =  2.4

     negative rho (up, down):  6.525E-02 0.000E+00

     total cpu time spent up to now is     2336.0 secs

     total energy              =   -9109.81450032 Ry
     estimated scf accuracy    <       0.00000611 Ry

     iteration # 11     ecut=    60.00 Ry     beta= 0.20
     Davidson diagonalization with overlap
     ethr =  2.78E-09,  avg # of iterations =  2.8

     negative rho (up, down):  6.526E-02 0.000E+00

     total cpu time spent up to now is     2373.4 secs

     total energy              =   -9109.81450180 Ry
     estimated scf accuracy    <       0.00000182 Ry

     iteration # 12     ecut=    60.00 Ry     beta= 0.20
     Davidson diagonalization with overlap
     ethr =  8.25E-10,  avg # of iterations =  4.0

     negative rho (up, down):  6.527E-02 0.000E+00

     total cpu time spent up to now is     2410.6 secs

     total energy              =   -9109.81450206 Ry
     estimated scf accuracy    <       0.00000097 Ry

     iteration # 13     ecut=    60.00 Ry     beta= 0.20
     Davidson diagonalization with overlap
     ethr =  4.39E-10,  avg # of iterations =  2.0

     negative rho (up, down):  6.526E-02 0.000E+00

     total cpu time spent up to now is     2447.8 secs

     total energy              =   -9109.81450201 Ry
     estimated scf accuracy    <       0.00000051 Ry

     iteration # 14     ecut=    60.00 Ry     beta= 0.20
     Davidson diagonalization with overlap
     ethr =  2.32E-10,  avg # of iterations =  2.0

     negative rho (up, down):  6.526E-02 0.000E+00

     total cpu time spent up to now is     2484.6 secs

     total energy              =   -9109.81450209 Ry
     estimated scf accuracy    <       0.00000029 Ry

     iteration # 15     ecut=    60.00 Ry     beta= 0.20
     Davidson diagonalization with overlap
     ethr =  1.30E-10,  avg # of iterations =  1.6

     negative rho (up, down):  6.526E-02 0.000E+00

     total cpu time spent up to now is     2521.9 secs

     total energy              =   -9109.81450212 Ry
     estimated scf accuracy    <       0.00000007 Ry

     iteration # 16     ecut=    60.00 Ry     beta= 0.20
     Davidson diagonalization with overlap
     ethr =  2.99E-11,  avg # of iterations =  4.8

     negative rho (up, down):  6.526E-02 0.000E+00

     total cpu time spent up to now is     2559.3 secs

     total energy              =   -9109.81450213 Ry
     estimated scf accuracy    <       0.00000003 Ry

     iteration # 17     ecut=    60.00 Ry     beta= 0.20
     Davidson diagonalization with overlap
     ethr =  1.41E-11,  avg # of iterations =  2.0

     negative rho (up, down):  6.526E-02 0.000E+00

     total cpu time spent up to now is     2596.2 secs

     total energy              =   -9109.81450213 Ry
     estimated scf accuracy    <       0.00000002 Ry

     iteration # 18     ecut=    60.00 Ry     beta= 0.20
     Davidson diagonalization with overlap
     ethr =  7.35E-12,  avg # of iterations =  1.8

     negative rho (up, down):  6.526E-02 0.000E+00

     total cpu time spent up to now is     2632.9 secs

     total energy              =   -9109.81450213 Ry
     estimated scf accuracy    <          4.8E-09 Ry

     iteration # 19     ecut=    60.00 Ry     beta= 0.20
     Davidson diagonalization with overlap
     ethr =  2.16E-12,  avg # of iterations =  3.8

     negative rho (up, down):  6.526E-02 0.000E+00

     total cpu time spent up to now is     2670.2 secs

     total energy              =   -9109.81450213 Ry
     estimated scf accuracy    <          6.2E-09 Ry

     iteration # 20     ecut=    60.00 Ry     beta= 0.20
     Davidson diagonalization with overlap
     ethr =  2.16E-12,  avg # of iterations =  1.8

     negative rho (up, down):  6.526E-02 0.000E+00

     total cpu time spent up to now is     2707.4 secs

     End of self-consistent calculation

          k = 0.0000 0.0000 0.0000 ( 80199 PWs)   bands (ev):

  -103.1291-103.1291-103.1142-103.1142-102.8061-102.8060 -68.1295 -68.1295
   -68.1290 -68.1290 -63.6850 -63.6847 -63.6765 -63.6760 -63.5316 -63.5315
   -63.4674 -63.4673 -63.4604 -63.4603 -63.4002 -63.4001 -63.3085 -63.3084
   -63.3063 -63.3058 -63.0523 -63.0521 -34.6669 -34.6659 -34.6641 -34.6636
   -34.6393 -34.6362 -34.6356 -34.6320 -34.5307 -34.5306 -34.5304 -34.5302
   -12.9640 -12.6607 -12.5784 -12.1100 -12.0989 -11.8835 -11.7778 -11.7537
   -11.6874 -11.4271  -6.1750  -5.9086  -5.7363  -5.6247  -5.4466  -5.4331
    -5.4021  -4.7260  -4.6077  -4.1703  -4.0872  -3.7585  -3.7334  -3.7043
    -3.5349  -3.4912  -3.2588  -3.2286  -2.9803  -2.8185  -2.8123  -2.7926
    -2.6095  -2.5265  -2.4370  -2.3265  -2.2665  -2.2074  -2.1797  -2.1530
    -1.9696  -1.9208  -1.8860  -1.8620  -1.8257  -1.7324  -1.7230  -1.6967
    -1.5694  -1.5002  -1.4452  -1.3560  -1.2285  -1.1693  -1.0269  -0.9840
    -0.9770  -0.8204  -0.6974  -0.6396  -0.3521  -0.3426  -0.3286  -0.2789
    -0.1446  -0.1290  -0.0109   0.0075   0.2468   0.2706   0.4862   0.7718
     0.9219   1.3404   1.4289   1.6051   1.6486   1.7199   1.7463   1.9180
     2.3579   2.4955   2.5388   2.9004   2.9266   3.1657   3.4696   3.6734
     3.8111   3.8797   3.8925   4.0499

          k = 0.0000 0.5128 0.0000 ( 80314 PWs)   bands (ev):

  -103.1287-103.1287-103.1145-103.1145-102.8061-102.8060 -68.1291 -68.1291
   -68.1286 -68.1286 -63.6846 -63.6845 -63.6767 -63.6764 -63.5319 -63.5318
   -63.4767 -63.4767 -63.4514 -63.4513 -63.4006 -63.4005 -63.3084 -63.3083
   -63.3062 -63.3059 -63.0528 -63.0527 -34.6654 -34.6643 -34.6626 -34.6621
   -34.6374 -34.6346 -34.6339 -34.6305 -34.5444 -34.5444 -34.5440 -34.5440
   -12.8482 -12.5476 -12.4720 -12.0391 -12.0068 -11.8057 -11.7106 -11.6713
   -11.6054 -11.3671  -6.0618  -5.8006  -5.6144  -5.4927  -5.3461  -5.3395
    -5.2800  -4.6238  -4.5166  -4.1110  -4.0536  -3.8240  -3.7542  -3.7409
    -3.5318  -3.5287  -3.3695  -3.2831  -2.9706  -2.9383  -2.8688  -2.6811
    -2.6387  -2.5684  -2.5429  -2.5316  -2.5210  -2.4263  -2.1043  -2.0739
    -2.0539  -2.0103  -1.9341  -1.8442  -1.8379  -1.8008  -1.7650  -1.7425
    -1.6993  -1.5824  -1.5014  -1.3894  -1.3145  -1.1891  -1.1247  -1.0531
    -1.0264  -0.9969  -0.7692  -0.6639  -0.6341  -0.5626  -0.5379  -0.4285
    -0.3376  -0.3189  -0.0913  -0.0433   0.2676   0.3275   0.4859   0.6855
     1.0347   1.3340   1.3517   1.4053   1.4955   1.5351   1.6290   1.8771
     2.2643   2.2799   2.5551   2.6382   2.7346   2.9069   3.2487   3.4114
     3.4915   3.6091   3.7235   3.8793

          k = 0.0000 1.0256 0.0000 ( 80474 PWs)   bands (ev):

  -103.1277-103.1277-103.1156-103.1156-102.8061-102.8060 -68.1280 -68.1280
   -68.1276 -68.1276 -63.6842 -63.6841 -63.6774 -63.6771 -63.5313 -63.5311
   -63.4888 -63.4888 -63.4404 -63.4403 -63.4018 -63.4018 -63.3084 -63.3083
   -63.3062 -63.3060 -63.0538 -63.0537 -34.6614 -34.6603 -34.6586 -34.6580
   -34.6324 -34.6301 -34.6294 -34.6267 -34.5802 -34.5799 -34.5799 -34.5796
   -12.5144 -12.2229 -12.1679 -11.8395 -11.7550 -11.6024 -11.5107 -11.4321
   -11.3787 -11.2024  -5.7674  -5.5107  -5.2964  -5.2044  -5.0924  -5.0165
    -4.9659  -4.4059  -4.3948  -4.1619  -3.9586  -3.9527  -3.8496  -3.8230
    -3.7583  -3.6992  -3.6617  -3.4489  -3.2884  -3.1431  -3.0310  -3.0092
    -2.9664  -2.8824  -2.8205  -2.6490  -2.5642  -2.4048  -2.3804  -2.3700
    -2.2589  -2.2025  -2.1763  -2.1161  -2.0298  -1.9558  -1.8967  -1.8294
    -1.7823  -1.7177  -1.6504  -1.5295  -1.5130  -1.3656  -1.3117  -1.2982
    -1.2109  -1.0255  -0.9077  -0.8233  -0.8047  -0.7801  -0.7445  -0.7288
    -0.7195  -0.5234  -0.2170  -0.1518  -0.0580  -0.0499   0.8288   1.0202
     1.0523   1.1847   1.2307   1.3477   1.3763   1.4326   1.6048   1.8132
     2.1363   2.1815   2.2346   2.4304   2.6793   2.6926   2.9259   2.9356
     3.1054   3.3033   4.1099   4.2653

          k = 0.0000 1.5384 0.0000 ( 80594 PWs)   bands (ev):

  -103.1260-103.1260-103.1172-103.1172-102.8061-102.8060 -68.1266 -68.1266
   -68.1263 -68.1263 -63.6833 -63.6833 -63.6785 -63.6783 -63.5290 -63.5290
   -63.5004 -63.5002 -63.4303 -63.4302 -63.4043 -63.4042 -63.3083 -63.3082
   -63.3062 -63.3060 -63.0547 -63.0546 -34.6564 -34.6555 -34.6537 -34.6531
   -34.6277 -34.6263 -34.6257 -34.6238 -34.6238 -34.6222 -34.6216 -34.6202
   -12.0084 -11.7393 -11.7206 -11.5529 -11.4189 -11.3586 -11.2027 -11.0784
   -11.0738 -10.9812  -5.5455  -5.2634  -5.1864  -5.1125  -4.9002  -4.8521
    -4.7554  -4.6468  -4.5739  -4.4555  -4.2803  -4.2062  -4.1481  -3.9958
    -3.8838  -3.8229  -3.7306  -3.6173  -3.6166  -3.3665  -3.2998  -3.2905
    -3.2134  -2.9569  -2.8769  -2.8598  -2.8308  -2.7644  -2.5634  -2.5114
    -2.4777  -2.4019  -2.3973  -2.1528  -2.0821  -2.0352  -2.0274  -1.9204
    -1.9086  -1.8807  -1.8299  -1.6014  -1.5881  -1.4307  -1.3764  -1.3099
    -1.2186  -1.1932  -1.1195  -1.0919  -0.9581  -0.9366  -0.9168  -0.8587
    -0.6782  -0.6445  -0.4658  -0.3684  -0.3172  -0.2474   0.9091   1.0277
     1.1535   1.2103   1.2165   1.4912   1.6614   1.6735   1.8187   1.8756
     2.1638   2.1855   2.2275   2.4992   2.5885   2.8585   2.9672   3.0072
     3.3545   3.4093   4.0214   4.1145

          k = 0.0000 2.0512 0.0000 ( 80630 PWs)   bands (ev):

  -103.1239-103.1239-103.1193-103.1193-102.8061-102.8060 -68.1255 -68.1254
   -68.1253 -68.1253 -63.6822 -63.6821 -63.6797 -63.6796 -63.5251 -63.5250
   -63.5105 -63.5104 -63.4216 -63.4215 -63.4080 -63.4080 -63.3083 -63.3082
   -63.3061 -63.3060 -63.0554 -63.0553 -34.6601 -34.6598 -34.6592 -34.6588
   -34.6519 -34.6515 -34.6492 -34.6489 -34.6207 -34.6199 -34.6188 -34.6180
   -11.4335 -11.3062 -11.2291 -11.2028 -11.1638 -11.1124 -10.9240 -10.8658
   -10.7771 -10.7285  -5.8939  -5.8827  -5.8385  -5.7525  -5.2385  -5.1950
[...]
     2.1057   2.1957   2.2191   2.3686   2.6617   2.6753   2.8180   2.8748
     3.0867   3.2598   4.0718   4.2092

          k = 0.0000 1.5384 0.0000 ( 80594 PWs)   bands (ev):

  -103.0994-103.0994-103.0915-103.0914-102.7940-102.7940 -68.1622 -68.1622
   -68.1620 -68.1620 -63.6551 -63.6550 -63.6500 -63.6499 -63.4819 -63.4818
   -63.4648 -63.4647 -63.4077 -63.4077 -63.3915 -63.3914 -63.3037 -63.3035
   -63.2968 -63.2968 -63.0287 -63.0285 -34.6781 -34.6776 -34.6761 -34.6758
   -34.6457 -34.6455 -34.6452 -34.6446 -34.6423 -34.6404 -34.6392 -34.6377
   -11.9205 -11.6677 -11.6187 -11.5034 -11.3332 -11.3196 -11.1198 -11.0350
   -11.0103 -10.9361  -5.4818  -5.1836  -5.0885  -4.9835  -4.7954  -4.7468
    -4.6261  -4.5660  -4.4979  -4.3353  -4.2466  -4.1323  -4.1061  -3.9236
    -3.8171  -3.7722  -3.7033  -3.5961  -3.5575  -3.3145  -3.2336  -3.2213
    -3.1656  -2.9240  -2.8583  -2.8376  -2.7474  -2.7163  -2.5133  -2.4225
    -2.4027  -2.3618  -2.3359  -2.0756  -2.0254  -1.9208  -1.9041  -1.9026
    -1.8891  -1.8450  -1.8119  -1.5651  -1.5296  -1.4161  -1.3529  -1.2652
    -1.2121  -1.1698  -1.0751  -1.0745  -1.0323  -0.9130  -0.9043  -0.9002
    -0.6855  -0.6625  -0.4265  -0.4188  -0.3143  -0.2544   0.9061   1.0316
     1.0789   1.1350   1.1740   1.4500   1.6360   1.6513   1.7343   1.8395
     2.1547   2.1735   2.1848   2.3818   2.5454   2.8365   2.8460   2.9239
     3.2843   3.3863   3.9624   4.0145

          k = 0.0000 2.0512 0.0000 ( 80630 PWs)   bands (ev):

  -103.0975-103.0975-103.0933-103.0933-102.7940-102.7939 -68.1611 -68.1611
   -68.1610 -68.1610 -63.6538 -63.6538 -63.6512 -63.6511 -63.4802 -63.4802
   -63.4715 -63.4714 -63.4019 -63.4019 -63.3936 -63.3935 -63.3035 -63.3035
   -63.2968 -63.2968 -63.0294 -63.0292 -34.6804 -34.6802 -34.6795 -34.6793
   -34.6736 -34.6735 -34.6716 -34.6716 -34.6375 -34.6366 -34.6352 -34.6343
   -11.3659 -11.2825 -11.1189 -11.1032 -11.0999 -11.0176 -10.8466 -10.7892
   -10.7399 -10.6870  -5.7824  -5.7615  -5.7217  -5.6431  -5.1474  -5.1112
    -4.8756  -4.7444  -4.7026  -4.4560  -4.2032  -4.1735  -4.0616  -3.8240
    -3.7327  -3.6265  -3.5413  -3.5053  -3.3811  -3.3645  -3.2670  -3.2147
    -3.1933  -3.0932  -3.0815  -3.0758  -2.7082  -2.6656  -2.5373  -2.5137
    -2.4502  -2.3879  -2.3025  -2.1078  -2.0716  -1.9835  -1.9805  -1.9264
    -1.8724  -1.8431  -1.8239  -1.5869  -1.5820  -1.5727  -1.3835  -1.3648
    -1.2455  -1.2373  -1.1555  -1.1322  -1.0868  -1.0476  -1.0126  -0.9162
    -0.7014  -0.6926  -0.6618  -0.5796  -0.4413  -0.4390   0.6905   0.7836
     1.1162   1.2899   1.3469   1.3477   1.7064   1.9661   1.9954   2.1878
     2.3385   2.4044   2.4330   2.5739   2.6839   2.8061   3.2085   3.3672
     3.4384   3.5852   3.6912   3.7596

          k = 0.0000-2.5640 0.0000 ( 80580 PWs)   bands (ev):

  -103.0954-103.0954-103.0954-103.0954-102.7940-102.7939 -68.1607 -68.1607
   -68.1606 -68.1606 -63.6524 -63.6523 -63.6523 -63.6522 -63.4774 -63.4774
   -63.4760 -63.4760 -63.3979 -63.3978 -63.3964 -63.3963 -63.3033 -63.3033
   -63.2968 -63.2968 -63.0295 -63.0295 -34.6934 -34.6933 -34.6923 -34.6923
   -34.6722 -34.6722 -34.6702 -34.6702 -34.6354 -34.6354 -34.6332 -34.6332
   -11.1176 -11.1164 -10.8745 -10.8694 -10.8662 -10.8654 -10.8166 -10.8140
   -10.6033 -10.6008  -6.0457  -6.0453  -6.0448  -6.0395  -5.4297  -5.4255
    -4.9860  -4.9827  -4.7073  -4.7049  -3.9540  -3.9532  -3.7796  -3.7742
    -3.7111  -3.7096  -3.3502  -3.3483  -3.3257  -3.3200  -3.2826  -3.2817
    -3.2696  -3.2652  -2.9181  -2.9073  -2.7013  -2.6927  -2.6508  -2.6456
    -2.3437  -2.3382  -2.1358  -2.1329  -2.1092  -2.1074  -1.9214  -1.9214
    -1.8277  -1.8269  -1.7063  -1.7027  -1.5954  -1.5909  -1.5334  -1.5317
    -1.2170  -1.2170  -1.1046  -1.1045  -1.1001  -1.0942  -0.9311  -0.9286
    -0.7990  -0.7987  -0.7382  -0.7379  -0.5292  -0.5257   0.6859   0.6874
     1.1872   1.1930   1.3626   1.3688   1.7449   1.7485   2.0445   2.0518
     2.5496   2.5522   2.5802   2.5888   2.8768   2.8851   3.6287   3.6336
     3.6779   3.6805   3.7388   3.7405

          k =-0.5000 0.0000 0.0000 ( 80210 PWs)   bands (ev):

  -103.1022-103.1022-103.0887-103.0887-102.7940-102.7940 -68.1651 -68.1651
   -68.1647 -68.1647 -63.6567 -63.6567 -63.6482 -63.6481 -63.4810 -63.4810
   -63.4476 -63.4476 -63.4225 -63.4225 -63.3900 -63.3900 -63.3036 -63.3036
   -63.2970 -63.2970 -63.0261 -63.0261 -34.6884 -34.6884 -34.6866 -34.6866
   -34.6538 -34.6538 -34.6482 -34.6482 -34.5535 -34.5535 -34.5532 -34.5532
   -12.7725 -12.7724 -12.1918 -12.1918 -12.0075 -12.0075 -11.7153 -11.7153
   -11.4642 -11.4642  -6.0332  -6.0332  -5.6546  -5.6546  -5.3504  -5.3504
    -4.9133  -4.9132  -4.4390  -4.4390  -3.8006  -3.8006  -3.5819  -3.5818
    -3.3172  -3.3172  -3.0654  -3.0654  -3.0520  -3.0520  -2.6615  -2.6615
    -2.4767  -2.4767  -2.3440  -2.3440  -2.1692  -2.1692  -2.0345  -2.0345
    -1.8891  -1.8891  -1.8565  -1.8565  -1.8022  -1.8022  -1.6777  -1.6777
    -1.5726  -1.5725  -1.4182  -1.4182  -1.1662  -1.1662  -1.0114  -1.0114
    -0.9453  -0.9452  -0.5550  -0.5550  -0.3931  -0.3930  -0.2893  -0.2893
    -0.0681  -0.0681   0.0519   0.0520   0.2313   0.2313   0.6625   0.6626
     0.9513   0.9514   1.4460   1.4460   1.6006   1.6006   1.8299   1.8299
     2.4860   2.4860   2.6487   2.6487   3.0117   3.0118   3.5627   3.5629
     3.7748   3.7748   3.9578   3.9578

          k =-0.5000 0.5128 0.0000 ( 80314 PWs)   bands (ev):

  -103.1019-103.1018-103.0890-103.0890-102.7940-102.7940 -68.1647 -68.1647
   -68.1643 -68.1643 -63.6565 -63.6565 -63.6483 -63.6483 -63.4817 -63.4816
   -63.4506 -63.4506 -63.4199 -63.4199 -63.3900 -63.3900 -63.3036 -63.3036
   -63.2969 -63.2968 -63.0267 -63.0267 -34.6869 -34.6869 -34.6851 -34.6850
   -34.6521 -34.6521 -34.6468 -34.6468 -34.5670 -34.5670 -34.5667 -34.5667
   -12.6595 -12.6595 -12.0898 -12.0898 -11.9348 -11.9348 -11.6349 -11.6349
   -11.3969 -11.3969  -5.9183  -5.9182  -5.5386  -5.5386  -5.2352  -5.2352
    -4.8103  -4.8102  -4.3644  -4.3644  -3.8255  -3.8255  -3.5944  -3.5943
    -3.2950  -3.2950  -3.1690  -3.1690  -3.1027  -3.1026  -2.6650  -2.6650
    -2.5300  -2.5300  -2.4838  -2.4838  -2.3611  -2.3611  -2.0366  -2.0366
    -1.8876  -1.8876  -1.8850  -1.8850  -1.8149  -1.8149  -1.7301  -1.7301
    -1.6683  -1.6683  -1.5303  -1.5302  -1.1922  -1.1922  -1.0836  -1.0836
    -0.9607  -0.9607  -0.7605  -0.7605  -0.5194  -0.5194  -0.4857  -0.4857
    -0.3307  -0.3307  -0.0412  -0.0412   0.3122   0.3122   0.5677   0.5677
     1.1089   1.1089   1.2634   1.2634   1.4734   1.4734   1.6867   1.6867
     2.2484   2.2484   2.5983   2.5983   2.7179   2.7179   3.3158   3.3158
     3.4826   3.4827   3.8414   3.8415

          k =-0.5000 1.0256 0.0000 ( 80472 PWs)   bands (ev):

  -103.1009-103.1009-103.0900-103.0900-102.7940-102.7940 -68.1636 -68.1636
   -68.1632 -68.1632 -63.6559 -63.6559 -63.6490 -63.6490 -63.4822 -63.4822
   -63.4573 -63.4573 -63.4141 -63.4141 -63.3904 -63.3904 -63.3036 -63.3036
   -63.2969 -63.2969 -63.0277 -63.0276 -34.6828 -34.6828 -34.6809 -34.6809
   -34.6476 -34.6475 -34.6431 -34.6431 -34.6021 -34.6021 -34.6017 -34.6017
   -12.3346 -12.3346 -11.8037 -11.8037 -11.7277 -11.7277 -11.4135 -11.4135
   -11.2072 -11.2072  -5.6149  -5.6149  -5.2322  -5.2322  -4.9267  -4.9267
    -4.5837  -4.5837  -4.2017  -4.2017  -3.9797  -3.9797  -3.7098  -3.7097
    -3.3993  -3.3993  -3.3634  -3.3634  -3.3212  -3.3212  -3.0031  -3.0031
    -2.8994  -2.8994  -2.6616  -2.6616  -2.4252  -2.4252  -2.3357  -2.3357
    -2.1671  -2.1670  -2.1239  -2.1239  -1.8680  -1.8680  -1.8499  -1.8498
    -1.7264  -1.7264  -1.6130  -1.6129  -1.3670  -1.3670  -1.2585  -1.2585
    -1.0906  -1.0906  -0.9674  -0.9674  -0.8757  -0.8757  -0.6478  -0.6478
    -0.6034  -0.6034  -0.1764  -0.1764  -0.0484  -0.0484   0.8793   0.8793
     1.1124   1.1124   1.2201   1.2201   1.3495   1.3495   1.7517   1.7517
     1.9014   1.9014   2.3334   2.3334   2.6197   2.6197   2.9532   2.9533
     3.1199   3.1199   4.1608   4.1609

          k =-0.5000 1.5384 0.0000 ( 80488 PWs)   bands (ev):

  -103.0994-103.0994-103.0915-103.0914-102.7940-102.7940 -68.1622 -68.1622
   -68.1620 -68.1620 -63.6549 -63.6549 -63.6499 -63.6498 -63.4818 -63.4818
   -63.4647 -63.4646 -63.4076 -63.4076 -63.3914 -63.3914 -63.3035 -63.3035
   -63.2967 -63.2967 -63.0286 -63.0285 -34.6779 -34.6778 -34.6759 -34.6759
   -34.6456 -34.6456 -34.6450 -34.6450 -34.6415 -34.6414 -34.6383 -34.6382
   -11.8471 -11.8470 -11.4557 -11.4557 -11.3719 -11.3719 -11.1193 -11.1193
   -10.9382 -10.9382  -5.3584  -5.3584  -4.9571  -4.9571  -4.8779  -4.8778
    -4.6263  -4.6263  -4.3465  -4.3464  -4.2151  -4.2151  -3.9570  -3.9570
    -3.8068  -3.8068  -3.6303  -3.6303  -3.4271  -3.4271  -3.2823  -3.2822
    -2.9601  -2.9601  -2.8710  -2.8710  -2.7633  -2.7633  -2.5407  -2.5407
    -2.3690  -2.3690  -2.1901  -2.1901  -1.9754  -1.9754  -1.9100  -1.9100
    -1.8632  -1.8631  -1.7196  -1.7196  -1.3878  -1.3878  -1.3055  -1.3055
    -1.2036  -1.2036  -1.0773  -1.0773  -1.0055  -1.0055  -0.8688  -0.8688
    -0.6870  -0.6870  -0.4338  -0.4338  -0.2785  -0.2784   0.9242   0.9242
     1.2129   1.2129   1.3900   1.3900   1.6230   1.6231   1.8028   1.8028
     1.9769   1.9769   2.2790   2.2790   2.6500   2.6500   3.0439   3.0439
     3.2358   3.2358   4.1225   4.1225

          k =-0.5000 2.0512 0.0000 ( 80588 PWs)   bands (ev):

  -103.0975-103.0975-103.0933-103.0933-102.7940-102.7939 -68.1611 -68.1611
   -68.1610 -68.1610 -63.6538 -63.6538 -63.6511 -63.6511 -63.4801 -63.4801
   -63.4714 -63.4714 -63.4019 -63.4019 -63.3935 -63.3935 -63.3035 -63.3035
   -63.2968 -63.2967 -63.0293 -63.0292 -34.6803 -34.6803 -34.6794 -34.6794
   -34.6736 -34.6736 -34.6716 -34.6716 -34.6372 -34.6372 -34.6347 -34.6346
   -11.3257 -11.3257 -11.1521 -11.1520 -10.9914 -10.9914 -10.8597 -10.8597
   -10.6966 -10.6966  -5.8128  -5.8128  -5.6209  -5.6208  -5.1561  -5.1560
    -4.8339  -4.8339  -4.5645  -4.5645  -4.1904  -4.1904  -3.9109  -3.9108
    -3.7697  -3.7697  -3.5103  -3.5102  -3.3274  -3.3274  -3.2335  -3.2335
    -3.1647  -3.1647  -2.9252  -2.9252  -2.7999  -2.7999  -2.5686  -2.5686
    -2.3771  -2.3770  -2.1841  -2.1841  -2.0598  -2.0598  -1.9627  -1.9627
    -1.8899  -1.8899  -1.7290  -1.7290  -1.4898  -1.4898  -1.3761  -1.3760
    -1.2528  -1.2528  -1.1749  -1.1749  -1.0679  -1.0679  -0.9116  -0.9116
    -0.7956  -0.7956  -0.5551  -0.5551  -0.4505  -0.4505   0.7352   0.7352
     1.1930   1.1930   1.5262   1.5262   1.6957   1.6957   2.1221   2.1221
     2.3427   2.3427   2.4104   2.4104   2.7637   2.7637   3.2812   3.2813
     3.5262   3.5263   3.7566   3.7566

          k =-0.5000-2.5640 0.0000 ( 80652 PWs)   bands (ev):

  -103.0954-103.0954-103.0954-103.0954-102.7940-102.7939 -68.1607 -68.1607
   -68.1606 -68.1606 -63.6526 -63.6526 -63.6524 -63.6524 -63.4774 -63.4774
   -63.4760 -63.4760 -63.3978 -63.3978 -63.3963 -63.3963 -63.3036 -63.3035
   -63.2967 -63.2967 -63.0296 -63.0295 -34.6934 -34.6934 -34.6923 -34.6923
   -34.6722 -34.6722 -34.6702 -34.6702 -34.6354 -34.6354 -34.6332 -34.6332
   -11.1170 -11.1169 -10.8812 -10.8812 -10.8385 -10.8384 -10.8352 -10.8351
   -10.6003 -10.6002  -6.1360  -6.1360  -5.9342  -5.9342  -5.4402  -5.4401
    -4.9722  -4.9722  -4.7317  -4.7317  -3.8955  -3.8955  -3.8609  -3.8609
    -3.6460  -3.6460  -3.4695  -3.4695  -3.3318  -3.3318  -3.2774  -3.2774
    -3.2122  -3.2122  -2.8531  -2.8530  -2.7172  -2.7172  -2.6378  -2.6378
    -2.2410  -2.2410  -2.1950  -2.1950  -2.1436  -2.1436  -1.8921  -1.8921
    -1.8539  -1.8539  -1.7008  -1.7008  -1.6613  -1.6613  -1.4364  -1.4364
    -1.2725  -1.2725  -1.1408  -1.1408  -1.0550  -1.0550  -0.9623  -0.9623
    -0.8390  -0.8390  -0.6759  -0.6759  -0.5257  -0.5257   0.6922   0.6922
     1.1927   1.1928   1.5280   1.5280   1.5387   1.5387   2.2289   2.2289
     2.3483   2.3483   2.5641   2.5641   2.9046   2.9046   3.6449   3.6449
     3.7015   3.7015   3.8489   3.8489

     the Fermi energy is     0.4158 ev

!    total energy              =   -9109.82500115 Ry
     total all-electron energy =     -9109.825001 Ry
     estimated scf accuracy    <          9.8E-11 Ry
     smearing contrib. (-TS)   =      -0.00000002 Ry
     internal energy E=F+TS    =   -9109.82500113 Ry

     The total energy is F=E-TS. E is the sum of the following terms:
     one-electron contribution =  -17078.46699782 Ry
     hartree contribution      =    8400.39448019 Ry
     xc contribution           =    -365.25813030 Ry
     ewald contribution        =    6201.27859007 Ry
     one-center paw contrib.   =   -6267.77294328 Ry

     convergence has been achieved in  16 iterations

     negative rho (up, down):  6.485E-02 0.000E+00

     Forces acting on atoms (cartesian axes, Ry/au):

     atom    1 type  1   force =    -0.00030904   -0.00000490   -0.00038625
     atom    2 type  1   force =    -0.00030836    0.00000621    0.00039352
     atom    3 type  1   force =     0.00029907   -0.00000652   -0.00038792
     atom    4 type  1   force =     0.00029746    0.00000559    0.00038756
     atom    5 type  2   force =     0.00012336   -0.00051875   -0.00006997
     atom    6 type  2   force =     0.00012486    0.00051772    0.00007291
     atom    7 type  2   force =    -0.00009400   -0.00051612   -0.00007468
     atom    8 type  2   force =    -0.00010385    0.00051886    0.00007224
     atom    9 type  2   force =    -0.00001086   -0.00081768    0.00013504
     atom   10 type  2   force =    -0.00000931    0.00081771   -0.00014179
     atom   11 type  3   force =     0.00017650    0.00065159   -0.00006709
     atom   12 type  3   force =     0.00017502   -0.00065356    0.00007047
     atom   13 type  3   force =    -0.00020172   -0.00042409   -0.00003298
     atom   14 type  3   force =    -0.00020020    0.00042407    0.00002350
     atom   15 type  3   force =    -0.00019010    0.00065039   -0.00004661
     atom   16 type  3   force =    -0.00018579   -0.00065207    0.00005124
     atom   17 type  3   force =     0.00021090   -0.00042572   -0.00004444
     atom   18 type  3   force =     0.00020493    0.00042453    0.00003443
     atom   19 type  3   force =     0.00000087   -0.00083108    0.00027412
     atom   20 type  3   force =     0.00000026    0.00083382   -0.00026331

     Total force =     0.002786     Total SCF correction =     0.000044


     Computing stress (Cartesian axis) and pressure


     negative rho (up, down):  6.485E-02 0.000E+00
          total   stress  (Ry/bohr**3)                   (kbar)     P=        4.73
   0.00003448   0.00000000  -0.00000000            5.07        0.00       -0.00
   0.00000000   0.00010318   0.00000050            0.00       15.18        0.07
  -0.00000000   0.00000050  -0.00004130           -0.00        0.07       -6.08

     Energy error            =      1.6E-05 Ry
     Gradient error          =      8.3E-04 Ry/Bohr

     bfgs converged in  26 scf cycles and  25 bfgs steps
     (criteria: energy <  1.0E-04 Ry, force <  1.0E-03 Ry/Bohr)

     End of BFGS Geometry Optimization

     Final energy             =   -9109.8250011477 Ry

     File /ddn/data/physics/eamoujaes/2D-Ta2Ni3Te5/ELASTIC/C22/OUT/ta2ni3te5.bfgs deleted, as requested
Begin final coordinates

ATOMIC_POSITIONS (angstrom)
Ta              15.4063115383        0.9667114574       12.3349120966
Ta               6.5860701892        2.6929774046       12.7008980718
Ta               2.2506060832        0.9666712820       12.3349510726
Ta              11.0708395423        2.6930185957       12.7008837290
Ni              12.8512643228        0.9702234305       11.7309889105
Ni               4.0310452244        2.6894816385       13.3048142356
Ni               4.8054671115        0.9701322136       11.7309989835
Ni              13.6257206687        2.6895588308       13.3048140693
Ni               8.8285894249        0.9736750325       12.4185498953
Ni               0.0083386512        2.6860121224       12.6173187552
Te              14.2012374533        2.6865264154       10.3875181496
Te               5.3810005560        0.9731802782       14.6482853519
Te              10.5782868671        0.9755933490       10.5423307406
Te               1.7580643468        2.6840991244       14.4935196146
Te               3.4556984284        2.6864671283       10.3873979412
Te              12.2759341389        0.9732313351       14.6484048400
Te               7.0785939462        0.9755639321       10.5424505765
Te              15.8988467697        2.6841387825       14.4933908402
Te               0.0082030464        0.9724443696       10.6757315801
Te               8.8284440541        2.6872257314       14.3600915457
End final coordinates



     Writing all to output data dir /ddn/data/physics/eamoujaes/2D-Ta2Ni3Te5/ELASTIC/C22/OUT/ta2ni3te5.save/ :
     XML data file, charge density, pseudopotentials, collected wavefunctions
 
     init_run     :     51.46s CPU     62.93s WALL (       1 calls)
     electrons    :  13984.25s CPU  18144.56s WALL (      26 calls)
     update_pot   :    678.91s CPU    868.04s WALL (      25 calls)
     forces       :     44.56s CPU     56.12s WALL (      26 calls)
     stress       :     77.99s CPU    122.20s WALL (      26 calls)

     Called by init_run:
     wfcinit      :      5.31s CPU      6.97s WALL (       1 calls)
     potinit      :     41.74s CPU     50.39s WALL (       1 calls)
     hinit0       :      2.59s CPU      3.00s WALL (       1 calls)

     Called by electrons:
     c_bands      :    951.85s CPU   1415.24s WALL (     483 calls)
     sum_band     :    317.85s CPU    426.03s WALL (     483 calls)
     v_of_rho     :    167.10s CPU    222.61s WALL (     497 calls)
     newd         :     33.84s CPU     55.52s WALL (     497 calls)
                                       55.51s GPU  (     497 calls)
     PAW_pot      :  13738.89s CPU  17577.06s WALL (     522 calls)
     mix_rho      :     47.57s CPU     89.62s WALL (     483 calls)

     Called by c_bands:
     init_us_2    :    103.16s CPU    130.52s WALL (   12528 calls)
     init_us_2:cp :     88.47s CPU    112.24s WALL (     300 calls)
     init_us_2:gp :     14.37s CPU     17.94s WALL (   12228 calls)
     cegterg      :    561.78s CPU    963.35s WALL (    5796 calls)

     Called by *egterg:
     cdiaghg      :     52.66s CPU     84.89s WALL (   20614 calls)
                                       84.78s GPU  (   20614 calls)
     h_psi        :    406.08s CPU    706.39s WALL (   21070 calls)
                                      704.88s GPU  (   21070 calls)
     s_psi        :      9.27s CPU     12.87s WALL (   21070 calls)
     g_psi        :      0.05s CPU      5.88s WALL (   15262 calls)
                                        5.75s GPU  (   15262 calls)

     Called by h_psi:
     h_psi:calbec :      0.67s CPU     25.99s WALL (   21070 calls)
                                       25.79s GPU  (   21070 calls)
     vloc_psi     :    366.04s CPU    641.18s WALL (   21070 calls)
                                      641.07s GPU  (   21070 calls)
     add_vuspsi   :      7.08s CPU     32.80s WALL (   21070 calls)
                                       32.58s GPU  (   21070 calls)

     General routines
     calbec       :    235.97s CPU    419.74s WALL (   28726 calls)
     fft          :     38.63s CPU     41.08s WALL (    7096 calls)
                                        2.38s GPU  (    6599 calls)
     ffts         :     12.82s CPU     12.93s WALL (     980 calls)
                                        0.07s GPU  (     483 calls)
     fftw         :      2.16s CPU    561.40s WALL (  304120 calls)
                                      557.77s GPU  (  304120 calls)
     interpolate  :     59.18s CPU     63.30s WALL (     497 calls)
 
     Parallel routines
 
     PWSCF        :      4h24m CPU      5h44m WALL

 
   This run was terminated on:   9:18:53  28Jul2024            

=------------------------------------------------------------------------------=
   JOB DONE.
=------------------------------------------------------------------------------=
