
     Program PWSCF v.7.3 starts on 28Jul2024 at  9:19:11 

     This program is part of the open-source Quantum ESPRESSO suite
     for quantum simulation of materials; please cite
         "P. Giannozzi et al., J. Phys.:Condens. Matter 21 395502 (2009);
         "P. Giannozzi et al., J. Phys.:Condens. Matter 29 465901 (2017);
         "P. Giannozzi et al., J. Chem. Phys. 152 154105 (2020);
          URL http://www.quantum-espresso.org", 
     in publications or presentations arising from this work. More details at
     http://www.quantum-espresso.org/quote

     Parallel version (MPI & OpenMP), running on      32 processor cores
     Number of MPI processes:                 1
     Threads/MPI process:                    32

     MPI processes distributed on     1 nodes
     206950 MiB available memory on the printing compute node when the environment starts
 
     Waiting for input...
     Reading input from standard input
Warning: card &CELL ignored
Warning: card CELL_DYNAMICS='BFGS' ignored
Warning: card PRESS=0.0 ignored
Warning: card CELL_DOFREE='2DXY' ignored
Warning: card / ignored

     Current dimensions of program PWSCF are:
     Max number of different atomic species (ntypx) = 10
     Max number of k-points (npk) =  40000
     Max angular momentum in pseudopotentials (lmaxx) =  4
read_pp_mesh; mismatch in mesh size, discarding the one in header
read_pp_mesh; mismatch in mesh size, discarding the one in header
read_pp_mesh; mismatch in mesh size, discarding the one in header
 
     Subspace diagonalization in iterative solution of the eigenvalue problem:
     a serial algorithm will be used

 
     G-vector sticks info
     --------------------
     sticks:   dense  smooth     PW     G-vecs:    dense   smooth      PW
     Sum        8471    4233   1187              1859147   657673   98549
 
     Using Slab Decomposition
 


     bravais-lattice index     =            0
     lattice parameter (alat)  =      33.3357  a.u.
     unit-cell volume          =   10470.8208 (a.u.)^3
     number of atoms/cell      =           20
     number of atomic types    =            3
     number of electrons       =       220.00
     number of Kohn-Sham states=          132
     kinetic-energy cutoff     =      60.0000  Ry
     charge density cutoff     =     480.0000  Ry
     scf convergence threshold =      1.0E-08
     mixing beta               =       0.2000
     number of iterations used =            8  plain     mixing
     energy convergence thresh.=      1.0E-04
     force convergence thresh. =      1.0E-03
     Exchange-correlation= SLA PW PBX PBC
                           (   1   4   3   4   0   0   0)
     nstep                     =         2000


     GPU acceleration is ACTIVE.  1 visible GPUs per MPI rank
     GPU-aware MPI enabled


     celldm(1)=  33.335714  celldm(2)=   0.000000  celldm(3)=   0.000000
     celldm(4)=   0.000000  celldm(5)=   0.000000  celldm(6)=   0.000000

     crystal axes: (cart. coord. in units of alat)
               a(1) = (   1.000000   0.000000   0.000000 )  
               a(2) = (   0.000000   0.199161   0.000000 )  
               a(3) = (   0.000000   0.000000   1.419211 )  

     reciprocal axes: (cart. coord. in units 2 pi/alat)
               b(1) = (  1.000000  0.000000  0.000000 )  
               b(2) = (  0.000000  5.021063  0.000000 )  
               b(3) = (  0.000000  0.000000  0.704617 )  


     PseudoPot. # 1 for Ta read from file:
     /ddn/data/physics/eamoujaes/PSEUDO-CREATED/Ta.upf
     MD5 check sum: d865b2c2c09566b116f2b8decb2c153d
     Pseudo is Projector augmented-wave + core cor, Zval = 13.0
     Generated using ATOMPAW code
     Shape of augmentation charge: SINC**2
     Using radial grid of 2342 points,  6 beta functions with: 
                l(1) =   0
                l(2) =   0
                l(3) =   1
                l(4) =   1
                l(5) =   2
                l(6) =   2
     Q(r) pseudized with 0 coefficients 


     PseudoPot. # 2 for Ni read from file:
     /ddn/data/physics/eamoujaes/PSEUDO-CREATED/Ni.upf
     MD5 check sum: 85a2a5d9d38f4289a1cc30d5adb66a03
     Pseudo is Projector augmented-wave + core cor, Zval = 18.0
     Generated using ATOMPAW code
     Shape of augmentation charge: SINC**2
     Using radial grid of 2342 points,  6 beta functions with: 
                l(1) =   0
                l(2) =   0
                l(3) =   1
                l(4) =   1
                l(5) =   2
                l(6) =   2
     Q(r) pseudized with 0 coefficients 


     PseudoPot. # 3 for Te read from file:
     /ddn/data/physics/eamoujaes/PSEUDO-CREATED/Te.upf
     MD5 check sum: 8d958f193a7511a138982c2e72838810
     Pseudo is Projector augmented-wave + core cor, Zval =  6.0
     Generated using ATOMPAW code
     Shape of augmentation charge: SINC**2
     Using radial grid of 2342 points,  4 beta functions with: 
                l(1) =   0
                l(2) =   0
                l(3) =   1
                l(4) =   1
     Q(r) pseudized with 0 coefficients 


     atomic species   valence    mass     pseudopotential
     Ta               13.00   180.94790     Ta( 1.00)
     Ni               18.00    58.69340     Ni( 1.00)
     Te                6.00   127.60000     Te( 1.00)

     No symmetry found



   Cartesian axes

     site n.     atom                  positions (alat units)
         1        Ta     tau(   1) = (   0.8725286   0.0518649   0.7054131  )
         2        Ta     tau(   2) = (   0.3725263   0.1555948   0.7138118  )
         3        Ta     tau(   3) = (   0.1284065   0.0518649   0.7054032  )
         4        Ta     tau(   4) = (   0.6284092   0.1555948   0.7138208  )
         5        Ni     tau(   5) = (   0.7292542   0.0518649   0.6667436  )
         6        Ni     tau(   6) = (   0.2292509   0.1555948   0.7524812  )
         7        Ni     tau(   7) = (   0.2716741   0.0518649   0.6667284  )
         8        Ni     tau(   8) = (   0.7716766   0.1555948   0.7524957  )
         9        Ni     tau(   9) = (   0.5004590   0.0518649   0.7011256  )
        10        Ni     tau(  10) = (   0.0004579   0.1555948   0.7180981  )
        11        Te     tau(  11) = (   0.8057052   0.1555948   0.5972198  )
        12        Te     tau(  12) = (   0.3057012   0.0518649   0.8220046  )
        13        Te     tau(  13) = (   0.6006311   0.0518649   0.5963172  )
        14        Te     tau(  14) = (   0.1006292   0.1555948   0.8229072  )
        15        Te     tau(  15) = (   0.1952149   0.1555948   0.5972072  )
        16        Te     tau(  16) = (   0.6952178   0.0518649   0.8220171  )
        17        Te     tau(  17) = (   0.4003072   0.0518649   0.5963080  )
        18        Te     tau(  18) = (   0.9003091   0.1555948   0.8229170  )
        19        Te     tau(  19) = (   0.0004704   0.0518649   0.6143601  )
        20        Te     tau(  20) = (   0.5004710   0.1555948   0.8048626  )

     number of k points=    12  Gaussian smearing, width (Ry)=  0.0020
                       cart. coord. in units 2pi/alat
        k(    1) = (   0.0000000   0.0000000   0.0000000), wk =   0.1000000
        k(    2) = (   0.0000000   0.5021063   0.0000000), wk =   0.2000000
        k(    3) = (   0.0000000   1.0042126   0.0000000), wk =   0.2000000
        k(    4) = (   0.0000000   1.5063188   0.0000000), wk =   0.2000000
        k(    5) = (   0.0000000   2.0084251   0.0000000), wk =   0.2000000
        k(    6) = (   0.0000000  -2.5105314   0.0000000), wk =   0.1000000
        k(    7) = (  -0.5000000   0.0000000   0.0000000), wk =   0.1000000
        k(    8) = (  -0.5000000   0.5021063   0.0000000), wk =   0.2000000
        k(    9) = (  -0.5000000   1.0042126   0.0000000), wk =   0.2000000
        k(   10) = (  -0.5000000   1.5063188   0.0000000), wk =   0.2000000
        k(   11) = (  -0.5000000   2.0084251   0.0000000), wk =   0.2000000
        k(   12) = (  -0.5000000  -2.5105314   0.0000000), wk =   0.1000000

     Dense  grid:  1859147 G-vectors     FFT dimensions: ( 240,  48, 360)

     Smooth grid:   657673 G-vectors     FFT dimensions: ( 180,  36, 240)

     Estimated max dynamical RAM per process >       9.50 GB

     Initial potential from superposition of free atoms

     starting charge     219.9927, renormalised to     220.0000

     negative rho (up, down):  5.007E-02 0.000E+00
     Starting wfcs are  260 randomized atomic wfcs
     Checking if some PAW data can be deallocated... 

     total cpu time spent up to now is       65.4 secs

     Self-consistent Calculation

     iteration #  1     ecut=    60.00 Ry     beta= 0.20
     Davidson diagonalization with overlap
     ethr =  1.00E-02,  avg # of iterations =  2.8

     negative rho (up, down):  5.055E-02 0.000E+00

     total cpu time spent up to now is      102.5 secs

     total energy              =   -9107.95416197 Ry
     estimated scf accuracy    <       7.65278972 Ry

     iteration #  2     ecut=    60.00 Ry     beta= 0.20
     Davidson diagonalization with overlap
     ethr =  3.48E-03,  avg # of iterations =  2.4

     negative rho (up, down):  5.212E-02 0.000E+00

     total cpu time spent up to now is      139.6 secs

     total energy              =   -9108.35058145 Ry
     estimated scf accuracy    <      11.49073016 Ry

     iteration #  3     ecut=    60.00 Ry     beta= 0.20
     Davidson diagonalization with overlap
     ethr =  3.48E-03,  avg # of iterations =  1.0

     negative rho (up, down):  5.304E-02 0.000E+00

     total cpu time spent up to now is      176.4 secs

     total energy              =   -9109.71334550 Ry
     estimated scf accuracy    <       3.40113425 Ry

     iteration #  4     ecut=    60.00 Ry     beta= 0.20
     Davidson diagonalization with overlap
     ethr =  1.55E-03,  avg # of iterations =  1.0

     negative rho (up, down):  5.434E-02 0.000E+00

     total cpu time spent up to now is      213.3 secs

     total energy              =   -9109.87312904 Ry
     estimated scf accuracy    <       0.75729763 Ry

     iteration #  5     ecut=    60.00 Ry     beta= 0.20
     Davidson diagonalization with overlap
     ethr =  3.44E-04,  avg # of iterations =  1.7

     negative rho (up, down):  5.927E-02 0.000E+00

     total cpu time spent up to now is      249.9 secs

     total energy              =   -9109.75803666 Ry
     estimated scf accuracy    <       0.42782235 Ry

     iteration #  6     ecut=    60.00 Ry     beta= 0.20
     Davidson diagonalization with overlap
     ethr =  1.94E-04,  avg # of iterations =  6.8

     negative rho (up, down):  6.172E-02 0.000E+00

     total cpu time spent up to now is      287.5 secs

     total energy              =   -9109.82980240 Ry
     estimated scf accuracy    <       0.38805226 Ry

     iteration #  7     ecut=    60.00 Ry     beta= 0.20
     Davidson diagonalization with overlap
     ethr =  1.76E-04,  avg # of iterations =  1.3

     negative rho (up, down):  6.212E-02 0.000E+00

     total cpu time spent up to now is      324.5 secs

     total energy              =   -9109.81342531 Ry
     estimated scf accuracy    <       0.47972347 Ry

     iteration #  8     ecut=    60.00 Ry     beta= 0.20
     Davidson diagonalization with overlap
     ethr =  1.76E-04,  avg # of iterations =  1.0

     negative rho (up, down):  6.227E-02 0.000E+00

     total cpu time spent up to now is      361.2 secs

     total energy              =   -9109.81652964 Ry
     estimated scf accuracy    <       0.07738495 Ry

     iteration #  9     ecut=    60.00 Ry     beta= 0.20
     Davidson diagonalization with overlap
     c_bands:  1 eigenvalues not converged
     ethr =  3.52E-05,  avg # of iterations =  7.3

     negative rho (up, down):  6.323E-02 0.000E+00

     total cpu time spent up to now is      398.9 secs

     total energy              =   -9109.82366514 Ry
     estimated scf accuracy    <       0.00757376 Ry

     iteration # 10     ecut=    60.00 Ry     beta= 0.20
     Davidson diagonalization with overlap
     c_bands:  3 eigenvalues not converged
     c_bands:  1 eigenvalues not converged
     c_bands:  1 eigenvalues not converged
     c_bands:  2 eigenvalues not converged
     ethr =  3.44E-06,  avg # of iterations = 13.3

     negative rho (up, down):  6.461E-02 0.000E+00

     total cpu time spent up to now is      438.1 secs

     total energy              =   -9109.82031362 Ry
     estimated scf accuracy    <       0.04998696 Ry

     iteration # 11     ecut=    60.00 Ry     beta= 0.20
     Davidson diagonalization with overlap
     c_bands:  4 eigenvalues not converged
     c_bands:  1 eigenvalues not converged
     ethr =  3.44E-06,  avg # of iterations =  5.7

     negative rho (up, down):  6.531E-02 0.000E+00

     total cpu time spent up to now is      475.9 secs

     total energy              =   -9109.82292626 Ry
     estimated scf accuracy    <       0.00447699 Ry

     iteration # 12     ecut=    60.00 Ry     beta= 0.20
     Davidson diagonalization with overlap
     ethr =  2.03E-06,  avg # of iterations =  4.8

     negative rho (up, down):  6.543E-02 0.000E+00

     total cpu time spent up to now is      513.6 secs

     total energy              =   -9109.82323399 Ry
     estimated scf accuracy    <       0.00178720 Ry

     iteration # 13     ecut=    60.00 Ry     beta= 0.20
     Davidson diagonalization with overlap
     ethr =  8.12E-07,  avg # of iterations =  1.4

     negative rho (up, down):  6.573E-02 0.000E+00

     total cpu time spent up to now is      550.5 secs

     total energy              =   -9109.82340497 Ry
     estimated scf accuracy    <       0.00026411 Ry

     iteration # 14     ecut=    60.00 Ry     beta= 0.20
     Davidson diagonalization with overlap
     ethr =  1.20E-07,  avg # of iterations =  2.3

     negative rho (up, down):  6.594E-02 0.000E+00

     total cpu time spent up to now is      587.7 secs

     total energy              =   -9109.82342702 Ry
     estimated scf accuracy    <       0.00007182 Ry

     iteration # 15     ecut=    60.00 Ry     beta= 0.20
     Davidson diagonalization with overlap
     ethr =  3.26E-08,  avg # of iterations =  2.0

     negative rho (up, down):  6.598E-02 0.000E+00

     total cpu time spent up to now is      625.1 secs

     total energy              =   -9109.82343075 Ry
     estimated scf accuracy    <       0.00003558 Ry

     iteration # 16     ecut=    60.00 Ry     beta= 0.20
     Davidson diagonalization with overlap
     ethr =  1.62E-08,  avg # of iterations =  1.9

     negative rho (up, down):  6.602E-02 0.000E+00

     total cpu time spent up to now is      662.7 secs

     total energy              =   -9109.82343166 Ry
     estimated scf accuracy    <       0.00002969 Ry

     iteration # 17     ecut=    60.00 Ry     beta= 0.20
     Davidson diagonalization with overlap
     ethr =  1.35E-08,  avg # of iterations =  1.3

     negative rho (up, down):  6.598E-02 0.000E+00

     total cpu time spent up to now is      699.6 secs

     total energy              =   -9109.82343388 Ry
     estimated scf accuracy    <       0.00000362 Ry

     iteration # 18     ecut=    60.00 Ry     beta= 0.20
     Davidson diagonalization with overlap
     ethr =  1.64E-09,  avg # of iterations =  3.9

     negative rho (up, down):  6.596E-02 0.000E+00

     total cpu time spent up to now is      737.0 secs

     total energy              =   -9109.82343441 Ry
     estimated scf accuracy    <       0.00000194 Ry

     iteration # 19     ecut=    60.00 Ry     beta= 0.20
     Davidson diagonalization with overlap
     ethr =  8.80E-10,  avg # of iterations =  2.0

     negative rho (up, down):  6.595E-02 0.000E+00

     total cpu time spent up to now is      773.8 secs

     total energy              =   -9109.82343465 Ry
     estimated scf accuracy    <       0.00000097 Ry

     iteration # 20     ecut=    60.00 Ry     beta= 0.20
     Davidson diagonalization with overlap
     ethr =  4.40E-10,  avg # of iterations =  1.8

     negative rho (up, down):  6.592E-02 0.000E+00

     total cpu time spent up to now is      811.1 secs

     total energy              =   -9109.82343473 Ry
     estimated scf accuracy    <       0.00000050 Ry

     iteration # 21     ecut=    60.00 Ry     beta= 0.20
     Davidson diagonalization with overlap
     ethr =  2.26E-10,  avg # of iterations =  2.0

     negative rho (up, down):  6.590E-02 0.000E+00

     total cpu time spent up to now is      848.2 secs

     total energy              =   -9109.82343477 Ry
     estimated scf accuracy    <       0.00000061 Ry

     iteration # 22     ecut=    60.00 Ry     beta= 0.20
     Davidson diagonalization with overlap
     ethr =  2.26E-10,  avg # of iterations =  1.0

     negative rho (up, down):  6.589E-02 0.000E+00

     total cpu time spent up to now is      885.1 secs

     total energy              =   -9109.82343482 Ry
     estimated scf accuracy    <       0.00000034 Ry

     iteration # 23     ecut=    60.00 Ry     beta= 0.20
     Davidson diagonalization with overlap
     ethr =  1.55E-10,  avg # of iterations =  1.0

     negative rho (up, down):  6.588E-02 0.000E+00

     total cpu time spent up to now is      922.0 secs

     total energy              =   -9109.82343484 Ry
     estimated scf accuracy    <       0.00000011 Ry

     iteration # 24     ecut=    60.00 Ry     beta= 0.20
     Davidson diagonalization with overlap
     ethr =  4.80E-11,  avg # of iterations =  1.7

     negative rho (up, down):  6.588E-02 0.000E+00

     total cpu time spent up to now is      959.2 secs

     total energy              =   -9109.82343486 Ry
     estimated scf accuracy    <       0.00000007 Ry

     iteration # 25     ecut=    60.00 Ry     beta= 0.20
     Davidson diagonalization with overlap
     ethr =  3.07E-11,  avg # of iterations =  1.0

     negative rho (up, down):  6.587E-02 0.000E+00

     total cpu time spent up to now is      996.4 secs

     total energy              =   -9109.82343486 Ry
     estimated scf accuracy    <       0.00000003 Ry

     iteration # 26     ecut=    60.00 Ry     beta= 0.20
     Davidson diagonalization with overlap
     ethr =  1.34E-11,  avg # of iterations =  2.0

     negative rho (up, down):  6.586E-02 0.000E+00

     total cpu time spent up to now is     1033.3 secs

     total energy              =   -9109.82343487 Ry
     estimated scf accuracy    <       0.00000002 Ry

     iteration # 27     ecut=    60.00 Ry     beta= 0.20
     Davidson diagonalization with overlap
     ethr =  8.76E-12,  avg # of iterations =  1.4

     negative rho (up, down):  6.586E-02 0.000E+00

     total cpu time spent up to now is     1070.0 secs

     End of self-consistent calculation

          k = 0.0000 0.0000 0.0000 ( 82143 PWs)   bands (ev):

  -103.2519-103.2519-103.2361-103.2361-102.8942-102.8941 -68.2939 -68.2938
   -68.2933 -68.2933 -63.8143 -63.8142 -63.8064 -63.8063 -63.6720 -63.6719
   -63.6011 -63.6011 -63.5651 -63.5651 -63.5065 -63.5065 -63.3869 -63.3868
   -63.3795 -63.3789 -63.1678 -63.1677 -34.8251 -34.8247 -34.8231 -34.8230
   -34.7926 -34.7887 -34.7886 -34.7844 -34.7240 -34.7239 -34.7236 -34.7235
   -13.0457 -12.7615 -12.6285 -12.1542 -12.1407 -11.9019 -11.8386 -11.8140
   -11.7321 -11.4763  -6.2104  -5.9609  -5.7938  -5.7119  -5.4907  -5.4655
    -5.4644  -4.8310  -4.6930  -4.2589  -4.2028  -3.8658  -3.8079  -3.7885
    -3.6478  -3.6181  -3.5121  -3.4787  -3.1103  -3.0647  -3.0420  -2.9210
    -2.6795  -2.6352  -2.6061  -2.5324  -2.4836  -2.2910  -2.2492  -2.2422
    -2.1235  -2.1183  -2.0283  -1.9034  -1.8670  -1.8180  -1.7801  -1.7301
    -1.7035  -1.6728  -1.5452  -1.5111  -1.2638  -1.2456  -1.1531  -1.0580
    -0.9932  -0.9647  -0.8280  -0.7586  -0.6353  -0.5981  -0.5257  -0.4365
    -0.3838  -0.3667  -0.2487  -0.2470   0.1563   0.1724   0.2673   0.5037
     0.9470   1.3157   1.4071   1.4167   1.5595   1.5889   1.6607   1.6897
     2.1992   2.3141   2.3302   2.6866   2.8267   2.8950   3.3852   3.5964
     3.7264   3.7701   3.8329   3.8455

          k = 0.0000 0.5021 0.0000 ( 82113 PWs)   bands (ev):

  -103.2516-103.2516-103.2365-103.2365-102.8941-102.8941 -68.2935 -68.2935
   -68.2930 -68.2930 -63.8141 -63.8140 -63.8067 -63.8065 -63.6712 -63.6712
   -63.6061 -63.6060 -63.5606 -63.5605 -63.5069 -63.5069 -63.3868 -63.3868
   -63.3794 -63.3790 -63.1680 -63.1678 -34.8238 -34.8234 -34.8218 -34.8217
   -34.7911 -34.7874 -34.7873 -34.7833 -34.7351 -34.7350 -34.7346 -34.7346
   -12.9363 -12.6550 -12.5292 -12.0794 -12.0693 -11.8312 -11.7834 -11.7419
   -11.6595 -11.4269  -6.1086  -5.8634  -5.6836  -5.5956  -5.4045  -5.3684
    -5.3486  -4.7366  -4.6154  -4.2089  -4.1752  -3.9585  -3.8664  -3.8260
    -3.7175  -3.6212  -3.6043  -3.5062  -3.1415  -3.1107  -3.0747  -2.7950
    -2.7905  -2.7761  -2.6999  -2.6840  -2.6239  -2.6074  -2.2485  -2.2061
    -2.1778  -2.1179  -2.0532  -2.0173  -1.9729  -1.8559  -1.8545  -1.7930
    -1.7362  -1.7220  -1.5601  -1.4777  -1.4452  -1.2865  -1.2778  -1.2242
    -1.1122  -1.1088  -0.9113  -0.8737  -0.7940  -0.7490  -0.7250  -0.5252
    -0.4794  -0.4110  -0.3191  -0.2034   0.1323   0.1607   0.3405   0.5705
     0.9495   1.1808   1.2658   1.3347   1.4226   1.5161   1.5856   1.7694
     2.0655   2.1798   2.3514   2.4639   2.6022   2.8218   3.0641   3.2445
     3.3227   3.4413   3.6441   3.7903

          k = 0.0000 1.0042 0.0000 ( 82126 PWs)   bands (ev):

  -103.2505-103.2505-103.2375-103.2375-102.8941-102.8941 -68.2927 -68.2927
   -68.2923 -68.2922 -63.8138 -63.8137 -63.8074 -63.8073 -63.6690 -63.6690
   -63.6164 -63.6163 -63.5516 -63.5516 -63.5084 -63.5083 -63.3869 -63.3868
   -63.3793 -63.3792 -63.1683 -63.1682 -34.8206 -34.8201 -34.8185 -34.8184
   -34.7875 -34.7844 -34.7843 -34.7808 -34.7638 -34.7635 -34.7630 -34.7627
   -12.6218 -12.3503 -12.2470 -11.9077 -11.8408 -11.6649 -11.6025 -11.5317
   -11.4611 -11.2929  -5.8512  -5.6048  -5.4004  -5.3388  -5.1802  -5.0715
    -5.0582  -4.5828  -4.5316  -4.2990  -4.1366  -4.0985  -3.9847  -3.9739
    -3.9501  -3.8480  -3.7796  -3.5928  -3.4581  -3.3124  -3.1801  -3.1592
    -3.1457  -3.0103  -2.9686  -2.8008  -2.7040  -2.5820  -2.5526  -2.4500
    -2.3863  -2.3426  -2.3039  -2.2146  -2.1522  -2.0949  -2.0002  -1.9788
    -1.8835  -1.7974  -1.7148  -1.6702  -1.6131  -1.4486  -1.4170  -1.4037
    -1.2698  -1.1661  -1.0926  -0.9515  -0.8895  -0.8464  -0.8443  -0.8226
    -0.7930  -0.6009  -0.3853  -0.2486  -0.1634  -0.1520   0.6883   0.9112
     0.9453   1.1521   1.1625   1.2396   1.3426   1.4147   1.5100   1.7154
     1.9973   2.0399   2.1371   2.3423   2.5288   2.6201   2.8106   2.8244
     2.9960   3.1738   4.0293   4.1708

          k = 0.0000 1.5063 0.0000 ( 82222 PWs)   bands (ev):

  -103.2490-103.2490-103.2390-103.2390-102.8941-102.8941 -68.2917 -68.2916
   -68.2913 -68.2913 -63.8132 -63.8131 -63.8082 -63.8081 -63.6657 -63.6656
   -63.6281 -63.6281 -63.5421 -63.5421 -63.5108 -63.5107 -63.3869 -63.3868
   -63.3793 -63.3792 -63.1691 -63.1690 -34.8173 -34.8169 -34.8155 -34.8152
   -34.8006 -34.7996 -34.7995 -34.7986 -34.7804 -34.7785 -34.7779 -34.7759
   -12.1476 -11.9000 -11.8375 -11.6620 -11.5463 -11.4797 -11.3216 -11.2157
   -11.2064 -11.1163  -5.6920  -5.4248  -5.3708  -5.2939  -5.0625  -4.9820
    -4.8731  -4.8020  -4.7086  -4.5800  -4.3819  -4.2873  -4.2658  -4.1085
    -3.9919  -3.9742  -3.8171  -3.7278  -3.7201  -3.5070  -3.4334  -3.4289
    -3.3381  -3.0719  -2.9905  -2.9633  -2.9275  -2.8449  -2.6792  -2.6781
    -2.6192  -2.5592  -2.4983  -2.3065  -2.2477  -2.1555  -2.1225  -2.0354
    -2.0210  -1.9636  -1.9195  -1.7290  -1.7106  -1.5269  -1.4898  -1.4100
    -1.3075  -1.2719  -1.2709  -1.2116  -1.0495  -1.0195  -1.0135  -0.9671
    -0.7816  -0.6708  -0.6304  -0.4388  -0.4204  -0.3490   0.7740   0.9022
     1.0215   1.1267   1.2143   1.3965   1.5554   1.5974   1.7014   1.7766
     2.0609   2.0781   2.1135   2.4361   2.4927   2.7387   2.8845   2.9393
     3.2523   3.2989   3.8965   4.0594

          k = 0.0000 2.0084 0.0000 ( 82272 PWs)   bands (ev):

  -103.2472-103.2472-103.2408-103.2407-102.8941-102.8941 -68.2909 -68.2908
   -68.2906 -68.2906 -63.8126 -63.8124 -63.8091 -63.8090 -63.6610 -63.6609
   -63.6385 -63.6384 -63.5344 -63.5343 -63.5139 -63.5138 -63.3869 -63.3868
   -63.3792 -63.3792 -63.1696 -63.1696 -34.8309 -34.8307 -34.8301 -34.8298
   -34.8116 -34.8111 -34.8094 -34.8091 -34.7766 -34.7756 -34.7744 -34.7734
   -11.6125 -11.4733 -11.4308 -11.3530 -11.3341 -11.2900 -11.0823 -11.0424
   -10.9551 -10.9163  -6.0242  -6.0134  -5.9730  -5.8811  -5.3285  -5.2643
    -5.0393  -4.9766  -4.8043  -4.6622  -4.3369  -4.3093  -4.1856  -3.9094
    -3.8823  -3.7738  -3.7049  -3.6636  -3.5237  -3.5128  -3.4380  -3.3941
    -3.2891  -3.2404  -3.1954  -3.1625  -2.9796  -2.9074  -2.7866  -2.7504
    -2.6292  -2.5569  -2.5442  -2.3384  -2.2177  -2.1908  -2.1425  -2.0788
    -2.0547  -2.0243  -2.0144  -1.8213  -1.7694  -1.6856  -1.5763  -1.5590
    -1.3688  -1.3385  -1.3206  -1.2943  -1.2210  -1.1501  -1.0815  -1.0297
    -0.8493  -0.8232  -0.7303  -0.6196  -0.5884  -0.5567   0.5946   0.6982
     1.2083   1.2166   1.2659   1.3652   1.6258   1.9373   1.9544   2.1292
     2.2317   2.3377   2.4175   2.5119   2.6048   2.7569   3.1526   3.2144
     3.3413   3.5269   3.6864   3.7218

          k = 0.0000-2.5105 0.0000 ( 82320 PWs)   bands (ev):

  -103.2462-103.2462-103.2418-103.2417-102.8941-102.8941 -68.2905 -68.2905
   -68.2903 -68.2903 -63.8122 -63.8121 -63.8096 -63.8096 -63.6577 -63.6575
   -63.6438 -63.6438 -63.5309 -63.5307 -63.5158 -63.5156 -63.3868 -63.3868
   -63.3793 -63.3792 -63.1699 -63.1698 -34.8414 -34.8412 -34.8404 -34.8403
   -34.8106 -34.8103 -34.8085 -34.8083 -34.7747 -34.7747 -34.7727 -34.7726
   -11.3354 -11.3183 -11.2240 -11.2048 -11.1885 -11.1400 -11.0787 -11.0439
   -10.8506 -10.8303  -6.2911  -6.2675  -6.2477  -6.2209  -5.5820  -5.5197
    -5.0780  -5.0763  -4.8671  -4.8583  -4.0764  -4.0564  -3.9893  -3.9426
    -3.8477  -3.8117  -3.5231  -3.4993  -3.4927  -3.4306  -3.4060  -3.3869
    -3.3742  -3.3427  -3.1927  -3.1019  -2.9472  -2.9366  -2.9102  -2.8808
    -2.5552  -2.5342  -2.4316  -2.3125  -2.2653  -2.1932  -2.1568  -2.0693
    -2.0569  -2.0193  -1.8987  -1.8336  -1.8121  -1.7895  -1.7780  -1.6653
    -1.3731  -1.3186  -1.2517  -1.2510  -1.2423  -1.2092  -1.1330  -1.0837
    -0.9994  -0.9889  -0.8012  -0.7861  -0.6196  -0.5440   0.5787   0.6292
     1.2573   1.2978   1.2987   1.3059   1.5920   1.7324   2.0453   2.0736
     2.4699   2.5660   2.5757   2.6012   2.8694   2.8777   3.2066   3.2456
     3.3652   3.4380   3.5155   3.7270

          k =-0.5000 0.0000 0.0000 ( 82186 PWs)   bands (ev):

  -103.2519-103.2519-103.2361-103.2361-102.8942-102.8941 -68.2938 -68.2938
   -68.2933 -68.2933 -63.8143 -63.8142 -63.8065 -63.8065 -63.6720 -63.6720
   -63.6011 -63.6011 -63.5652 -63.5651 -63.5065 -63.5064 -63.3869 -63.3868
   -63.3793 -63.3793 -63.1678 -63.1678 -34.8249 -34.8249 -34.8231 -34.8230
   -34.7915 -34.7914 -34.7857 -34.7856 -34.7240 -34.7240 -34.7236 -34.7235
   -12.9567 -12.9567 -12.3461 -12.3461 -12.0717 -12.0716 -11.8046 -11.8046
   -11.5673 -11.5673  -6.1205  -6.1205  -5.7954  -5.7954  -5.4406  -5.4405
    -5.0883  -5.0883  -4.6247  -4.6247  -3.9253  -3.9253  -3.7533  -3.7532
    -3.5427  -3.5427  -3.4933  -3.4932  -3.2064  -3.2063  -3.0655  -3.0655
    -2.6312  -2.6312  -2.6057  -2.6057  -2.3561  -2.3561  -2.2457  -2.2457
    -2.0280  -2.0280  -1.9344  -1.9344  -1.8693  -1.8693  -1.7550  -1.7550
    -1.6847  -1.6846  -1.6061  -1.6060  -1.2458  -1.2457  -1.0749  -1.0749
    -0.9165  -0.9165  -0.8098  -0.8098  -0.6540  -0.6539  -0.4702  -0.4702
    -0.3800  -0.3800  -0.2521  -0.2521   0.1695   0.1695   0.3780   0.3781
     1.1538   1.1538   1.4830   1.4830   1.5095   1.5095   1.5561   1.5561
     2.2467   2.2467   2.5952   2.5952   2.8041   2.8041   3.5335   3.5337
     3.7427   3.7436   3.8069   3.8070

          k =-0.5000 0.5021 0.0000 ( 82144 PWs)   bands (ev):

  -103.2516-103.2516-103.2365-103.2365-102.8941-102.8941 -68.2935 -68.2935
   -68.2930 -68.2930 -63.8141 -63.8141 -63.8067 -63.8067 -63.6711 -63.6711
   -63.6060 -63.6060 -63.5607 -63.5607 -63.5070 -63.5069 -63.3869 -63.3868
   -63.3793 -63.3793 -63.1679 -63.1678 -34.8237 -34.8236 -34.8218 -34.8217
   -34.7900 -34.7900 -34.7845 -34.7845 -34.7351 -34.7350 -34.7346 -34.7346
   -12.8487 -12.8487 -12.2510 -12.2510 -12.0114 -12.0114 -11.7329 -11.7329
   -11.5118 -11.5118  -6.0185  -6.0185  -5.6854  -5.6854  -5.3361  -5.3360
    -4.9972  -4.9972  -4.5621  -4.5621  -3.9877  -3.9877  -3.7918  -3.7917
    -3.5482  -3.5482  -3.5154  -3.5154  -3.3315  -3.3315  -2.9951  -2.9951
    -2.7384  -2.7383  -2.6925  -2.6925  -2.6152  -2.6152  -2.1983  -2.1983
    -2.0965  -2.0964  -2.0169  -2.0169  -1.9320  -1.9320  -1.8387  -1.8387
    -1.6924  -1.6924  -1.6453  -1.6453  -1.2991  -1.2991  -1.2562  -1.2562
    -1.0788  -1.0788  -0.8611  -0.8610  -0.8093  -0.8093  -0.6213  -0.6213
    -0.4483  -0.4482  -0.2757  -0.2757   0.1656   0.1657   0.4534   0.4534
     1.0875   1.0876   1.3687   1.3687   1.4455   1.4455   1.5715   1.5716
     2.0790   2.0791   2.4622   2.4622   2.6371   2.6371   3.1884   3.1884
     3.3632   3.3632   3.7895   3.7897

          k =-0.5000 1.0042 0.0000 ( 82126 PWs)   bands (ev):

  -103.2505-103.2505-103.2375-103.2375-102.8941-102.8941 -68.2927 -68.2927
   -68.2923 -68.2922 -63.8138 -63.8138 -63.8073 -63.8073 -63.6690 -63.6690
   -63.6164 -63.6164 -63.5515 -63.5515 -63.5083 -63.5083 -63.3869 -63.3868
   -63.3793 -63.3793 -63.1683 -63.1682 -34.8204 -34.8204 -34.8185 -34.8184
   -34.7866 -34.7866 -34.7819 -34.7819 -34.7637 -34.7637 -34.7629 -34.7628
   -12.5386 -12.5386 -11.9840 -11.9840 -11.8437 -11.8437 -11.5383 -11.5383
   -11.3555 -11.3555  -5.7545  -5.7545  -5.4006  -5.4005  -5.0661  -5.0661
    -4.8348  -4.8348  -4.4569  -4.4568  -4.1657  -4.1657  -4.0175  -4.0175
    -3.6611  -3.6611  -3.5694  -3.5694  -3.5402  -3.5402  -3.2333  -3.2333
    -3.1149  -3.1148  -2.8809  -2.8809  -2.6663  -2.6663  -2.4746  -2.4746
    -2.3456  -2.3456  -2.2917  -2.2917  -2.0884  -2.0884  -1.9794  -1.9794
    -1.8595  -1.8595  -1.7288  -1.7288  -1.4648  -1.4648  -1.3928  -1.3928
    -1.1966  -1.1966  -1.1129  -1.1129  -0.8968  -0.8968  -0.7997  -0.7997
    -0.7046  -0.7046  -0.2688  -0.2688  -0.1408  -0.1408   0.7593   0.7593
     1.0609   1.0609   1.2731   1.2731   1.4276   1.4276   1.6178   1.6178
     1.8127   1.8127   2.2528   2.2528   2.5896   2.5897   2.8584   2.8584
     3.0418   3.0418   4.1177   4.1178

          k =-0.5000 1.5063 0.0000 ( 82184 PWs)   bands (ev):

  -103.2490-103.2490-103.2390-103.2390-102.8941-102.8941 -68.2917 -68.2916
   -68.2913 -68.2913 -63.8132 -63.8132 -63.8081 -63.8081 -63.6657 -63.6656
   -63.6281 -63.6281 -63.5420 -63.5420 -63.5107 -63.5107 -63.3868 -63.3867
   -63.3793 -63.3792 -63.1691 -63.1690 -34.8171 -34.8171 -34.8153 -34.8153
   -34.8003 -34.8003 -34.7989 -34.7989 -34.7798 -34.7798 -34.7765 -34.7765
   -12.0740 -12.0739 -11.6219 -11.6219 -11.5999 -11.5999 -11.2890 -11.2890
   -11.1317 -11.1317  -5.5836  -5.5835  -5.2564  -5.2563  -5.1204  -5.1204
    -4.8653  -4.8653  -4.5848  -4.5848  -4.3854  -4.3854  -4.0740  -4.0739
    -3.9520  -3.9519  -3.8427  -3.8427  -3.6192  -3.6192  -3.4495  -3.4495
    -3.1095  -3.1095  -3.0443  -3.0443  -2.8861  -2.8861  -2.7508  -2.7507
    -2.5493  -2.5493  -2.4159  -2.4159  -2.1850  -2.1850  -2.0805  -2.0804
    -2.0022  -2.0022  -1.8656  -1.8656  -1.5451  -1.5451  -1.4448  -1.4448
    -1.3023  -1.3023  -1.2217  -1.2217  -1.0991  -1.0991  -0.9267  -0.9267
    -0.7896  -0.7896  -0.5076  -0.5076  -0.3717  -0.3717   0.7931   0.7932
     1.2467   1.2467   1.3365   1.3365   1.5276   1.5277   1.6814   1.6814
     1.9720   1.9720   2.2392   2.2393   2.6816   2.6816   2.9793   2.9793
     3.1668   3.1668   4.0761   4.0762

          k =-0.5000 2.0084 0.0000 ( 82226 PWs)   bands (ev):

  -103.2472-103.2472-103.2408-103.2407-102.8941-102.8941 -68.2909 -68.2908
   -68.2906 -68.2906 -63.8125 -63.8125 -63.8090 -63.8090 -63.6609 -63.6609
   -63.6384 -63.6384 -63.5343 -63.5343 -63.5138 -63.5138 -63.3868 -63.3867
   -63.3792 -63.3792 -63.1696 -63.1696 -34.8308 -34.8308 -34.8300 -34.8300
   -34.8114 -34.8113 -34.8092 -34.8092 -34.7763 -34.7762 -34.7738 -34.7738
   -11.5628 -11.5627 -11.3945 -11.3944 -11.2763 -11.2763 -11.0846 -11.0846
   -10.9268 -10.9267  -6.0659  -6.0659  -5.8560  -5.8560  -5.3337  -5.3336
    -5.0142  -5.0142  -4.7163  -4.7163  -4.3406  -4.3406  -4.0403  -4.0402
    -3.8633  -3.8633  -3.7048  -3.7048  -3.4879  -3.4879  -3.3835  -3.3835
    -3.2310  -3.2310  -3.1030  -3.1030  -3.0146  -3.0146  -2.7989  -2.7989
    -2.6032  -2.6031  -2.3995  -2.3995  -2.2393  -2.2393  -2.1539  -2.1539
    -2.0437  -2.0437  -1.9301  -1.9301  -1.6201  -1.6201  -1.5974  -1.5974
    -1.3763  -1.3763  -1.3080  -1.3080  -1.2028  -1.2028  -0.9841  -0.9841
    -0.9294  -0.9294  -0.6427  -0.6427  -0.5751  -0.5751   0.6436   0.6436
     1.2475   1.2475   1.4482   1.4482   1.6138   1.6138   2.0804   2.0805
     2.2990   2.2990   2.3835   2.3835   2.6707   2.6708   3.1977   3.1977
     3.4160   3.4161   3.7069   3.7070

          k =-0.5000-2.5105 0.0000 ( 82216 PWs)   bands (ev):

  -103.2462-103.2462-103.2417-103.2417-102.8941-102.8941 -68.2905 -68.2905
   -68.2903 -68.2903 -63.8121 -63.8121 -63.8095 -63.8094 -63.6575 -63.6574
   -63.6438 -63.6437 -63.5307 -63.5307 -63.5156 -63.5156 -63.3867 -63.3867
   -63.3792 -63.3791 -63.1698 -63.1698 -34.8413 -34.8413 -34.8404 -34.8403
   -34.8105 -34.8105 -34.8084 -34.8084 -34.7747 -34.7747 -34.7726 -34.7726
   -11.3275 -11.3275 -11.2166 -11.2166 -11.1621 -11.1621 -11.0623 -11.0622
   -10.8387 -10.8387  -6.3557  -6.3557  -6.1389  -6.1389  -5.5661  -5.5660
    -5.0705  -5.0705  -4.8806  -4.8806  -4.0555  -4.0555  -3.9942  -3.9941
    -3.7632  -3.7632  -3.6041  -3.6041  -3.4662  -3.4662  -3.4315  -3.4315
    -3.3554  -3.3554  -3.0796  -3.0796  -2.8920  -2.8920  -2.8464  -2.8464
    -2.5641  -2.5641  -2.3998  -2.3998  -2.2589  -2.2588  -2.1484  -2.1484
    -2.0302  -2.0302  -1.8601  -1.8601  -1.8230  -1.8230  -1.6450  -1.6449
    -1.3934  -1.3934  -1.2754  -1.2754  -1.2127  -1.2126  -1.0907  -1.0907
    -1.0078  -1.0077  -0.7955  -0.7955  -0.5696  -0.5696   0.6090   0.6090
     1.2716   1.2716   1.4409   1.4409   1.5083   1.5083   2.2147   2.2147
     2.3066   2.3066   2.6365   2.6365   2.8590   2.8591   3.2376   3.2376
     3.3126   3.3126   3.8284   3.8288

     the Fermi energy is     0.2245 ev

!    total energy              =   -9109.82343488 Ry
     total all-electron energy =     -9109.823435 Ry
     estimated scf accuracy    <          3.4E-09 Ry
     smearing contrib. (-TS)   =      -0.00001073 Ry
     internal energy E=F+TS    =   -9109.82342415 Ry

     The total energy is F=E-TS. E is the sum of the following terms:
     one-electron contribution =  -16986.56754248 Ry
     hartree contribution      =    8353.35804298 Ry
     xc contribution           =    -365.58546771 Ry
     ewald contribution        =    6156.73883212 Ry
     one-center paw contrib.   =   -6267.76728907 Ry

     convergence has been achieved in  27 iterations

     negative rho (up, down):  6.586E-02 0.000E+00

     Forces acting on atoms (cartesian axes, Ry/au):

     atom    1 type  1   force =     0.00801061    0.02671757   -0.01278012
     atom    2 type  1   force =     0.00799218   -0.02671128    0.01278212
     atom    3 type  1   force =    -0.00802441    0.02672004   -0.01273772
     atom    4 type  1   force =    -0.00803501   -0.02672081    0.01275413
     atom    5 type  2   force =    -0.00702969    0.03277952   -0.00887156
     atom    6 type  2   force =    -0.00698630   -0.03278130    0.00886306
     atom    7 type  2   force =     0.00707114    0.03277733   -0.00886062
     atom    8 type  2   force =     0.00706889   -0.03277674    0.00888209
     atom    9 type  2   force =     0.00004784    0.01542113   -0.01292254
     atom   10 type  2   force =     0.00001345   -0.01542478    0.01292553
     atom   11 type  3   force =     0.00502438   -0.02109823   -0.02541830
     atom   12 type  3   force =     0.00503223    0.02110023    0.02541026
     atom   13 type  3   force =    -0.00273038    0.01252653   -0.02179481
     atom   14 type  3   force =    -0.00272927   -0.01252674    0.02178653
     atom   15 type  3   force =    -0.00499225   -0.02109836   -0.02542319
     atom   16 type  3   force =    -0.00499463    0.02109820    0.02541575
     atom   17 type  3   force =     0.00268403    0.01252530   -0.02179065
     atom   18 type  3   force =     0.00267928   -0.01252582    0.02178822
     atom   19 type  3   force =    -0.00004932    0.01431012   -0.01986832
     atom   20 type  3   force =    -0.00005275   -0.01431190    0.01986012

     Total force =     0.132682     Total SCF correction =     0.000129


     Computing stress (Cartesian axis) and pressure


     negative rho (up, down):  6.586E-02 0.000E+00
          total   stress  (Ry/bohr**3)                   (kbar)     P=       11.85
   0.00005925   0.00000000   0.00000000            8.72        0.00        0.00
   0.00000000   0.00013653  -0.00001670            0.00       20.08       -2.46
   0.00000000  -0.00001670   0.00004582            0.00       -2.46        6.74


     BFGS Geometry Optimization
     Energy error            =      0.0E+00 Ry
     Gradient error          =      3.3E-02 Ry/Bohr

     number of scf cycles    =   1
     number of bfgs steps    =   0

     energy             new  =   -9109.8234348754 Ry

     new trust radius        =       0.0346868156 bohr
     new conv_thr            =       0.0000000100 Ry


ATOMIC_POSITIONS (angstrom)
Ta              15.3960798572        0.9290618942       12.4370772845
Ta               6.5757797937        2.7306346820       12.5987603403
Ta               2.2609092809        0.9290631987       12.4369254517
Ta              11.0812014005        2.7306296380       12.5989056842
Ni              12.8606882079        0.9322697374       11.7569949678
Ni               4.0404031342        2.7274225620       13.2788340834
Ni               4.7962086074        0.9322685785       11.7567341194
Ni              13.6165013096        2.7274249792       13.2791012082
Ni               8.8283719792        0.9230840768       12.3613672855
Ni               0.0080840194        2.7366072369       12.6744497070
Te              14.2157011605        2.7336049774       10.5218059683
Te               5.3953847961        0.9260893234       14.5140186384
Te              10.5939882614        0.9215523207       10.5078005570
Te               1.7737058170        2.7381408133       14.5280238912
Te               3.4410469055        2.7336049109       10.5215801698
Te              12.2613464904        0.9260882526       14.5142419859
Te               7.0630387490        0.9215516659       10.5076401587
Te              15.8833197223        2.7381413023       14.5281969556
Te               0.0082728219        0.9224961523       10.8271052032
Te               8.8285300491        2.7371961514       14.2086873396



     Writing config-only to output data dir /ddn/data/physics/eamoujaes/2D-Ta2Ni3Te5/ELASTIC/C22/OUT/ta2ni3te5.save/ :
     XML data file
     NEW-OLD atomic charge density approx. for the potential

     negative rho (up, down):  6.519E-02 0.000E+00

     total cpu time spent up to now is     1481.6 secs

     Self-consistent Calculation

     iteration #  1     ecut=    60.00 Ry     beta= 0.20
     Davidson diagonalization with overlap
     ethr =  1.00E-06,  avg # of iterations =  8.8

     negative rho (up, down):  6.527E-02 0.000E+00

     total cpu time spent up to now is     1522.1 secs

     total energy              =   -9109.83174969 Ry
     estimated scf accuracy    <       0.01709758 Ry

     iteration #  2     ecut=    60.00 Ry     beta= 0.20
     Davidson diagonalization with overlap
     ethr =  7.77E-06,  avg # of iterations =  3.0

     negative rho (up, down):  6.532E-02 0.000E+00

     total cpu time spent up to now is     1559.7 secs

     total energy              =   -9109.83347306 Ry
     estimated scf accuracy    <       0.08207237 Ry

     iteration #  3     ecut=    60.00 Ry     beta= 0.20
     Davidson diagonalization with overlap
     ethr =  7.77E-06,  avg # of iterations =  2.0

     negative rho (up, down):  6.534E-02 0.000E+00

     total cpu time spent up to now is     1596.5 secs

     total energy              =   -9109.83775293 Ry
     estimated scf accuracy    <       0.00444128 Ry

     iteration #  4     ecut=    60.00 Ry     beta= 0.20
     Davidson diagonalization with overlap
     ethr =  2.02E-06,  avg # of iterations =  1.5

     negative rho (up, down):  6.545E-02 0.000E+00

     total cpu time spent up to now is     1633.4 secs

     total energy              =   -9109.83775630 Ry
     estimated scf accuracy    <       0.00132395 Ry

     iteration #  5     ecut=    60.00 Ry     beta= 0.20
     Davidson diagonalization with overlap
     ethr =  6.02E-07,  avg # of iterations =  2.0

     negative rho (up, down):  6.556E-02 0.000E+00

     total cpu time spent up to now is     1670.2 secs

     total energy              =   -9109.83775357 Ry
     estimated scf accuracy    <       0.00015486 Ry

     iteration #  6     ecut=    60.00 Ry     beta= 0.20
     Davidson diagonalization with overlap
     ethr =  7.04E-08,  avg # of iterations =  3.7

     negative rho (up, down):  6.558E-02 0.000E+00

     total cpu time spent up to now is     1708.1 secs

     total energy              =   -9109.83779501 Ry
     estimated scf accuracy    <       0.00007924 Ry

     iteration #  7     ecut=    60.00 Ry     beta= 0.20
     Davidson diagonalization with overlap
     ethr =  3.60E-08,  avg # of iterations =  1.3

     negative rho (up, down):  6.561E-02 0.000E+00

     total cpu time spent up to now is     1745.0 secs

     total energy              =   -9109.83779444 Ry
     estimated scf accuracy    <       0.00007629 Ry

     iteration #  8     ecut=    60.00 Ry     beta= 0.20
     Davidson diagonalization with overlap
     ethr =  3.47E-08,  avg # of iterations =  1.0

     negative rho (up, down):  6.564E-02 0.000E+00

     total cpu time spent up to now is     1781.9 secs

     total energy              =   -9109.83779954 Ry
     estimated scf accuracy    <       0.00001333 Ry

     iteration #  9     ecut=    60.00 Ry     beta= 0.20
     Davidson diagonalization with overlap
     ethr =  6.06E-09,  avg # of iterations =  2.0

     negative rho (up, down):  6.565E-02 0.000E+00

     total cpu time spent up to now is     1819.1 secs

     total energy              =   -9109.83780106 Ry
     estimated scf accuracy    <       0.00000609 Ry

     iteration # 10     ecut=    60.00 Ry     beta= 0.20
     Davidson diagonalization with overlap
     ethr =  2.77E-09,  avg # of iterations =  1.7

     negative rho (up, down):  6.566E-02 0.000E+00

     total cpu time spent up to now is     1856.4 secs

     total energy              =   -9109.83780201 Ry
     estimated scf accuracy    <       0.00000377 Ry

     iteration # 11     ecut=    60.00 Ry     beta= 0.20
     Davidson diagonalization with overlap
     ethr =  1.71E-09,  avg # of iterations =  2.0

     negative rho (up, down):  6.566E-02 0.000E+00

     total cpu time spent up to now is     1893.7 secs

     total energy              =   -9109.83780278 Ry
     estimated scf accuracy    <       0.00000205 Ry

     iteration # 12     ecut=    60.00 Ry     beta= 0.20
     Davidson diagonalization with overlap
     ethr =  9.30E-10,  avg # of iterations =  2.0

     negative rho (up, down):  6.567E-02 0.000E+00

     total cpu time spent up to now is     1930.7 secs

     total energy              =   -9109.83780316 Ry
     estimated scf accuracy    <       0.00000037 Ry

     iteration # 13     ecut=    60.00 Ry     beta= 0.20
     Davidson diagonalization with overlap
     ethr =  1.69E-10,  avg # of iterations =  3.3

     negative rho (up, down):  6.567E-02 0.000E+00

     total cpu time spent up to now is     1968.1 secs

     total energy              =   -9109.83780310 Ry
     estimated scf accuracy    <       0.00000019 Ry

     iteration # 14     ecut=    60.00 Ry     beta= 0.20
     Davidson diagonalization with overlap
     ethr =  8.67E-11,  avg # of iterations =  2.0

     negative rho (up, down):  6.567E-02 0.000E+00

     total cpu time spent up to now is     2005.4 secs

     total energy              =   -9109.83780318 Ry
     estimated scf accuracy    <       0.00000012 Ry

     iteration # 15     ecut=    60.00 Ry     beta= 0.20
     Davidson diagonalization with overlap
     ethr =  5.47E-11,  avg # of iterations =  2.0

     negative rho (up, down):  6.567E-02 0.000E+00

     total cpu time spent up to now is     2042.7 secs

     total energy              =   -9109.83780320 Ry
     estimated scf accuracy    <       0.00000002 Ry

     iteration # 16     ecut=    60.00 Ry     beta= 0.20
     Davidson diagonalization with overlap
     ethr =  7.81E-12,  avg # of iterations =  5.0

     negative rho (up, down):  6.567E-02 0.000E+00

     total cpu time spent up to now is     2080.6 secs

     total energy              =   -9109.83780320 Ry
     estimated scf accuracy    <       0.00000001 Ry

     iteration # 17     ecut=    60.00 Ry     beta= 0.20
     Davidson diagonalization with overlap
     ethr =  6.78E-12,  avg # of iterations =  2.0

     negative rho (up, down):  6.566E-02 0.000E+00

     total cpu time spent up to now is     2117.3 secs

     End of self-consistent calculation

          k = 0.0000 0.0000 0.0000 ( 82143 PWs)   bands (ev):

  -103.2329-103.2329-103.2183-103.2182-102.8853-102.8853 -68.3060 -68.3059
   -68.3055 -68.3055 -63.7939 -63.7939 -63.7867 -63.7865 -63.6476 -63.6474
   -63.5806 -63.5806 -63.5476 -63.5475 -63.4918 -63.4917 -63.3783 -63.3782
   -63.3739 -63.3733 -63.1537 -63.1535 -34.8324 -34.8319 -34.8303 -34.8301
   -34.7978 -34.7942 -34.7940 -34.7900 -34.7282 -34.7281 -34.7279 -34.7277
   -13.0080 -12.7178 -12.6020 -12.1248 -12.1243 -11.8893 -11.8143 -11.7892
   -11.7105 -11.4562  -6.1967  -5.9422  -5.7719  -5.6833  -5.4675  -5.4515
    -5.4385  -4.7936  -4.6606  -4.2285  -4.1611  -3.8232  -3.7717  -3.7622
    -3.6022  -3.5919  -3.4745  -3.4441  -3.0604  -3.0111  -3.0077  -2.8919
    -2.6620  -2.5974  -2.5810  -2.4941  -2.4644  -2.2726  -2.2267  -2.1890
    -2.1228  -2.1040  -2.0080  -1.8897  -1.8377  -1.8035  -1.7692  -1.7060
    -1.6969  -1.6838  -1.5448  -1.4762  -1.2630  -1.2376  -1.1263  -1.0515
    -0.9996  -0.9352  -0.8364  -0.7461  -0.6063  -0.5233  -0.5228  -0.4241
    -0.3566  -0.3476  -0.2810  -0.2649   0.1674   0.1793   0.2474   0.4995
     0.9189   1.2907   1.3895   1.4021   1.5580   1.6075   1.6481   1.6509
     2.2067   2.3039   2.3153   2.6763   2.8218   2.8906   3.3669   3.5904
     3.7175   3.7696   3.8224   3.8422

          k = 0.0000 0.5021 0.0000 ( 82113 PWs)   bands (ev):

  -103.2326-103.2326-103.2186-103.2186-102.8853-102.8853 -68.3057 -68.3056
   -68.3052 -68.3052 -63.7938 -63.7937 -63.7869 -63.7867 -63.6467 -63.6467
   -63.5857 -63.5856 -63.5430 -63.5429 -63.4922 -63.4922 -63.3782 -63.3781
   -63.3738 -63.3735 -63.1538 -63.1537 -34.8311 -34.8306 -34.8290 -34.8288
   -34.7963 -34.7929 -34.7926 -34.7889 -34.7392 -34.7392 -34.7388 -34.7388
   -12.8992 -12.6116 -12.5032 -12.0623 -12.0404 -11.8198 -11.7570 -11.7162
   -11.6379 -11.4060  -6.0940  -5.8441  -5.6608  -5.5648  -5.3818  -5.3559
    -5.3234  -4.6994  -4.5810  -4.1775  -4.1326  -3.9137  -3.8235  -3.8026
    -3.6644  -3.5955  -3.5700  -3.4748  -3.0990  -3.0660  -3.0429  -2.7614
    -2.7562  -2.7477  -2.6681  -2.6513  -2.5947  -2.5914  -2.2189  -2.1701
    -2.1573  -2.1101  -2.0292  -1.9895  -1.9447  -1.8420  -1.8359  -1.7901
    -1.7356  -1.7210  -1.5461  -1.4660  -1.4281  -1.2751  -1.2349  -1.2190
    -1.1176  -1.1068  -0.8913  -0.8608  -0.7710  -0.7403  -0.7286  -0.5120
    -0.4810  -0.4222  -0.2908  -0.2059   0.1284   0.1610   0.3478   0.5658
     0.9309   1.1664   1.2425   1.3246   1.3971   1.5142   1.5506   1.7723
     2.0683   2.1636   2.3449   2.4532   2.5897   2.8178   3.0580   3.2291
     3.3013   3.4275   3.6307   3.7828

          k = 0.0000 1.0042 0.0000 ( 82126 PWs)   bands (ev):

  -103.2316-103.2315-103.2196-103.2196-102.8853-102.8853 -68.3048 -68.3048
   -68.3044 -68.3044 -63.7935 -63.7933 -63.7876 -63.7875 -63.6446 -63.6445
   -63.5960 -63.5959 -63.5340 -63.5340 -63.4937 -63.4936 -63.3782 -63.3782
   -63.3737 -63.3736 -63.1541 -63.1540 -34.8279 -34.8273 -34.8257 -34.8255
   -34.7924 -34.7896 -34.7893 -34.7861 -34.7680 -34.7677 -34.7675 -34.7672
   -12.5859 -12.3080 -12.2219 -11.8883 -11.8125 -11.6493 -11.5777 -11.5041
   -11.4394 -11.2695  -5.8332  -5.5839  -5.3744  -5.3025  -5.1591  -5.0606
    -5.0329  -4.5350  -4.4938  -4.2569  -4.0900  -4.0597  -3.9445  -3.9444
    -3.8927  -3.8323  -3.7603  -3.5700  -3.4249  -3.2920  -3.1426  -3.1261
    -3.1048  -2.9784  -2.9394  -2.7737  -2.6730  -2.5544  -2.5224  -2.4470
    -2.3580  -2.3195  -2.2780  -2.1906  -2.1316  -2.0611  -1.9701  -1.9553
    -1.8856  -1.7850  -1.7010  -1.6555  -1.6031  -1.4399  -1.4050  -1.3931
    -1.2725  -1.1556  -1.0728  -0.9386  -0.8862  -0.8505  -0.8302  -0.8113
    -0.7882  -0.6136  -0.3710  -0.2571  -0.1637  -0.1520   0.6942   0.9104
     0.9315   1.1426   1.1442   1.2417   1.3103   1.3967   1.4951   1.7057
     1.9889   2.0434   2.1164   2.3270   2.5230   2.6033   2.7995   2.8031
     2.9758   3.1520   4.0165   4.1584

          k = 0.0000 1.5063 0.0000 ( 82222 PWs)   bands (ev):

  -103.2300-103.2300-103.2212-103.2211-102.8853-102.8853 -68.3038 -68.3038
   -68.3035 -68.3035 -63.7928 -63.7928 -63.7884 -63.7883 -63.6411 -63.6411
   -63.6076 -63.6076 -63.5245 -63.5245 -63.4963 -63.4962 -63.3782 -63.3782
   -63.3737 -63.3736 -63.1549 -63.1549 -34.8241 -34.8236 -34.8220 -34.8217
   -34.8039 -34.8033 -34.8032 -34.8026 -34.7867 -34.7847 -34.7840 -34.7820
   -12.1136 -11.8590 -11.8135 -11.6392 -11.5167 -11.4565 -11.3010 -11.1868
   -11.1846 -11.0895  -5.6656  -5.3995  -5.3268  -5.2573  -5.0197  -4.9587
    -4.8400  -4.7734  -4.6752  -4.5443  -4.3592  -4.2564  -4.2509  -4.0756
    -3.9604  -3.9445  -3.7982  -3.7073  -3.7003  -3.4741  -3.4044  -3.3921
    -3.3042  -3.0522  -2.9634  -2.9548  -2.9201  -2.8303  -2.6482  -2.6331
    -2.5866  -2.5326  -2.4734  -2.2774  -2.2124  -2.1235  -2.1017  -2.0128
    -2.0061  -1.9498  -1.9065  -1.7135  -1.6851  -1.5190  -1.4730  -1.4012
    -1.2967  -1.2731  -1.2575  -1.2003  -1.0396  -1.0123  -1.0068  -0.9561
    -0.7619  -0.6892  -0.6168  -0.4304  -0.4303  -0.3479   0.7701   0.8982
     1.0203   1.1254   1.1861   1.3904   1.5514   1.5820   1.7046   1.7552
     2.0466   2.0670   2.0981   2.4155   2.4805   2.7285   2.8673   2.9112
     3.2259   3.2798   3.8881   4.0179

          k = 0.0000 2.0084 0.0000 ( 82272 PWs)   bands (ev):

  -103.2281-103.2280-103.2231-103.2230-102.8853-102.8852 -68.3030 -68.3029
   -68.3028 -68.3028 -63.7921 -63.7919 -63.7894 -63.7894 -63.6359 -63.6359
   -63.6183 -63.6182 -63.5164 -63.5163 -63.4999 -63.4999 -63.3782 -63.3782
   -63.3737 -63.3736 -63.1555 -63.1554 -34.8334 -34.8332 -34.8326 -34.8323
   -34.8194 -34.8190 -34.8172 -34.8170 -34.7826 -34.7816 -34.7803 -34.7793
   -11.5806 -11.4467 -11.3906 -11.3291 -11.3056 -11.2567 -11.0635 -11.0208
   -10.9259 -10.8877  -5.9833  -5.9790  -5.9320  -5.8529  -5.2927  -5.2475
    -5.0077  -4.9377  -4.7792  -4.6279  -4.3184  -4.2835  -4.1623  -3.8989
    -3.8651  -3.7402  -3.6905  -3.6386  -3.4994  -3.4990  -3.3943  -3.3699
    -3.2756  -3.2256  -3.1835  -3.1553  -2.9411  -2.8799  -2.7460  -2.7300
    -2.5986  -2.5217  -2.5106  -2.3100  -2.1828  -2.1492  -2.1084  -2.0718
    -2.0366  -2.0155  -1.9953  -1.7863  -1.7453  -1.6873  -1.5573  -1.5450
    -1.3602  -1.3346  -1.3046  -1.2780  -1.2139  -1.1386  -1.0711  -1.0171
    -0.8394  -0.8014  -0.7286  -0.6235  -0.5789  -0.5576   0.5932   0.6880
     1.1890   1.2005   1.2655   1.3433   1.6179   1.9170   1.9393   2.1239
     2.2285   2.3298   2.3942   2.5021   2.6021   2.7459   3.1319   3.2073
     3.3200   3.5237   3.6514   3.7025

          k = 0.0000-2.5105 0.0000 ( 82320 PWs)   bands (ev):

  -103.2267-103.2266-103.2244-103.2244-102.8853-102.8852 -68.3027 -68.3026
   -68.3025 -68.3025 -63.7916 -63.7915 -63.7901 -63.7900 -63.6307 -63.6306
   -63.6256 -63.6255 -63.5122 -63.5119 -63.5026 -63.5024 -63.3782 -63.3781
   -63.3737 -63.3737 -63.1557 -63.1557 -34.8438 -34.8438 -34.8429 -34.8428
   -34.8184 -34.8182 -34.8163 -34.8161 -34.7807 -34.7806 -34.7786 -34.7785
   -11.3049 -11.2932 -11.1782 -11.1631 -11.1542 -11.1162 -11.0625 -11.0320
   -10.8188 -10.8045  -6.2474  -6.2262  -6.2126  -6.1957  -5.5492  -5.5044
    -5.0542  -5.0501  -4.8316  -4.8271  -4.0531  -4.0408  -3.9537  -3.9208
    -3.8261  -3.7985  -3.4935  -3.4711  -3.4565  -3.4180  -3.4010  -3.3712
    -3.3704  -3.3433  -3.1567  -3.0765  -2.9130  -2.8971  -2.8856  -2.8526
    -2.5165  -2.5128  -2.3763  -2.3002  -2.2254  -2.1813  -2.1003  -2.0461
    -2.0379  -2.0188  -1.8607  -1.8283  -1.8012  -1.7790  -1.7281  -1.6745
    -1.3510  -1.3236  -1.2408  -1.2403  -1.2215  -1.2050  -1.1031  -1.0726
    -0.9806  -0.9716  -0.7967  -0.7869  -0.6076  -0.5554   0.5856   0.6120
     1.2346   1.2614   1.2904   1.2954   1.6099   1.6964   2.0284   2.0487
     2.4728   2.5416   2.5692   2.5835   2.8582   2.8698   3.2225   3.2491
     3.3719   3.4225   3.5374   3.6763

          k =-0.5000 0.0000 0.0000 ( 82186 PWs)   bands (ev):

  -103.2329-103.2329-103.2183-103.2182-102.8853-102.8853 -68.3060 -68.3059
   -68.3055 -68.3055 -63.7940 -63.7939 -63.7867 -63.7867 -63.6476 -63.6476
   -63.5806 -63.5806 -63.5476 -63.5476 -63.4917 -63.4917 -63.3782 -63.3782
   -63.3737 -63.3737 -63.1537 -63.1536 -34.8322 -34.8322 -34.8302 -34.8302
   -34.7968 -34.7968 -34.7912 -34.7912 -34.7282 -34.7282 -34.7278 -34.7278
   -12.9189 -12.9188 -12.3150 -12.3150 -12.0532 -12.0532 -11.7860 -11.7860
   -11.5448 -11.5448  -6.1044  -6.1044  -5.7731  -5.7731  -5.4205  -5.4205
    -5.0550  -5.0550  -4.5900  -4.5900  -3.8957  -3.8957  -3.7108  -3.7108
    -3.5063  -3.5063  -3.4589  -3.4589  -3.1780  -3.1779  -3.0132  -3.0132
    -2.6030  -2.6030  -2.5781  -2.5780  -2.3203  -2.3203  -2.2291  -2.2291
    -2.0029  -2.0028  -1.9234  -1.9234  -1.8558  -1.8558  -1.7334  -1.7334
    -1.6715  -1.6715  -1.6045  -1.6045  -1.2400  -1.2400  -1.0624  -1.0624
    -0.9160  -0.9160  -0.7823  -0.7823  -0.6106  -0.6106  -0.4672  -0.4672
    -0.3536  -0.3536  -0.2779  -0.2779   0.1799   0.1799   0.3659   0.3660
     1.1287   1.1287   1.4800   1.4801   1.5002   1.5002   1.5329   1.5329
     2.2495   2.2496   2.5804   2.5804   2.7958   2.7958   3.5152   3.5152
     3.7452   3.7459   3.8013   3.8014

          k =-0.5000 0.5021 0.0000 ( 82144 PWs)   bands (ev):

  -103.2326-103.2326-103.2186-103.2186-102.8853-102.8853 -68.3057 -68.3056
   -68.3052 -68.3052 -63.7938 -63.7938 -63.7870 -63.7869 -63.6466 -63.6466
   -63.5856 -63.5856 -63.5431 -63.5431 -63.4922 -63.4922 -63.3782 -63.3782
   -63.3737 -63.3737 -63.1537 -63.1537 -34.8309 -34.8309 -34.8289 -34.8289
   -34.7953 -34.7953 -34.7900 -34.7900 -34.7392 -34.7392 -34.7388 -34.7388
   -12.8113 -12.8113 -12.2203 -12.2202 -11.9921 -11.9921 -11.7144 -11.7144
   -11.4884 -11.4884  -6.0015  -6.0015  -5.6625  -5.6625  -5.3165  -5.3165
    -4.9636  -4.9635  -4.5264  -4.5264  -3.9523  -3.9522  -3.7514  -3.7513
    -3.5093  -3.5093  -3.4816  -3.4816  -3.2993  -3.2993  -2.9564  -2.9564
    -2.7053  -2.7053  -2.6595  -2.6595  -2.5923  -2.5922  -2.1719  -2.1719
    -2.0668  -2.0667  -1.9883  -1.9882  -1.9234  -1.9233  -1.8269  -1.8269
    -1.6822  -1.6822  -1.6436  -1.6435  -1.2837  -1.2837  -1.2387  -1.2387
    -1.0727  -1.0727  -0.8404  -0.8404  -0.7997  -0.7997  -0.6185  -0.6185
    -0.4502  -0.4502  -0.2638  -0.2638   0.1658   0.1658   0.4513   0.4513
     1.0723   1.0723   1.3505   1.3505   1.4234   1.4234   1.5623   1.5623
     2.0772   2.0772   2.4550   2.4550   2.6229   2.6230   3.1777   3.1777
     3.3470   3.3470   3.7762   3.7762

          k =-0.5000 1.0042 0.0000 ( 82126 PWs)   bands (ev):

  -103.2316-103.2315-103.2196-103.2196-102.8853-102.8853 -68.3048 -68.3048
   -68.3044 -68.3044 -63.7935 -63.7935 -63.7875 -63.7875 -63.6445 -63.6445
   -63.5960 -63.5959 -63.5340 -63.5339 -63.4937 -63.4936 -63.3782 -63.3782
   -63.3737 -63.3737 -63.1541 -63.1541 -34.8276 -34.8276 -34.8256 -34.8256
   -34.7916 -34.7916 -34.7871 -34.7871 -34.7679 -34.7679 -34.7673 -34.7673
   -12.5026 -12.5026 -11.9543 -11.9543 -11.8217 -11.8217 -11.5196 -11.5196
   -11.3299 -11.3299  -5.7348  -5.7347  -5.3755  -5.3754  -5.0470  -5.0469
    -4.7972  -4.7972  -4.4152  -4.4152  -4.1327  -4.1326  -3.9734  -3.9734
    -3.6248  -3.6248  -3.5422  -3.5422  -3.5132  -3.5132  -3.2024  -3.2024
    -3.0860  -3.0860  -2.8478  -2.8478  -2.6313  -2.6313  -2.4652  -2.4651
    -2.3112  -2.3112  -2.2718  -2.2718  -2.0614  -2.0614  -1.9643  -1.9643
    -1.8366  -1.8366  -1.7216  -1.7215  -1.4620  -1.4620  -1.3796  -1.3796
    -1.1839  -1.1839  -1.1018  -1.1017  -0.8961  -0.8960  -0.7890  -0.7889
    -0.7029  -0.7028  -0.2692  -0.2692  -0.1420  -0.1419   0.7608   0.7608
     1.0521   1.0522   1.2635   1.2635   1.3937   1.3937   1.6158   1.6158
     1.8043   1.8043   2.2410   2.2410   2.5745   2.5746   2.8420   2.8420
     3.0240   3.0240   4.1044   4.1045

          k =-0.5000 1.5063 0.0000 ( 82184 PWs)   bands (ev):

  -103.2300-103.2300-103.2212-103.2211-102.8853-102.8853 -68.3038 -68.3038
   -68.3035 -68.3035 -63.7928 -63.7928 -63.7884 -63.7884 -63.6411 -63.6411
   -63.6076 -63.6075 -63.5244 -63.5244 -63.4962 -63.4962 -63.3781 -63.3781
   -63.3737 -63.3736 -63.1549 -63.1549 -34.8239 -34.8239 -34.8219 -34.8218
   -34.8037 -34.8037 -34.8028 -34.8028 -34.7860 -34.7860 -34.7827 -34.7827
   -12.0399 -12.0399 -11.5978 -11.5977 -11.5692 -11.5691 -11.2691 -11.2690
   -11.1043 -11.1043  -5.5559  -5.5559  -5.2136  -5.2136  -5.0908  -5.0908
    -4.8373  -4.8373  -4.5490  -4.5490  -4.3561  -4.3561  -4.0574  -4.0574
    -3.9274  -3.9274  -3.8102  -3.8102  -3.5854  -3.5854  -3.4271  -3.4271
    -3.0794  -3.0794  -3.0202  -3.0202  -2.8779  -2.8778  -2.7238  -2.7238
    -2.5176  -2.5176  -2.3846  -2.3845  -2.1536  -2.1536  -2.0644  -2.0643
    -1.9758  -1.9758  -1.8552  -1.8552  -1.5251  -1.5251  -1.4343  -1.4343
    -1.2974  -1.2974  -1.2102  -1.2102  -1.0918  -1.0917  -0.9160  -0.9160
    -0.7851  -0.7851  -0.5071  -0.5071  -0.3714  -0.3714   0.7902   0.7902
     1.2356   1.2357   1.3259   1.3259   1.5207   1.5207   1.6787   1.6787
     1.9541   1.9541   2.2214   2.2214   2.6632   2.6633   2.9637   2.9637
     3.1447   3.1447   4.0604   4.0606

          k =-0.5000 2.0084 0.0000 ( 82226 PWs)   bands (ev):

  -103.2281-103.2280-103.2230-103.2230-102.8853-102.8852 -68.3030 -68.3030
   -68.3028 -68.3028 -63.7920 -63.7920 -63.7894 -63.7893 -63.6358 -63.6358
   -63.6183 -63.6183 -63.5163 -63.5163 -63.4998 -63.4998 -63.3781 -63.3781
   -63.3736 -63.3736 -63.1555 -63.1554 -34.8333 -34.8333 -34.8325 -34.8324
   -34.8192 -34.8192 -34.8171 -34.8171 -34.7822 -34.7822 -34.7797 -34.7797
   -11.5312 -11.5311 -11.3647 -11.3647 -11.2448 -11.2448 -11.0647 -11.0646
   -10.8984 -10.8984  -6.0288  -6.0288  -5.8197  -5.8197  -5.3077  -5.3077
    -4.9800  -4.9799  -4.6880  -4.6880  -4.3175  -4.3174  -4.0172  -4.0172
    -3.8509  -3.8509  -3.6756  -3.6755  -3.4641  -3.4641  -3.3594  -3.3594
    -3.2232  -3.2232  -3.0832  -3.0831  -2.9843  -2.9843  -2.7629  -2.7629
    -2.5769  -2.5768  -2.3689  -2.3689  -2.1980  -2.1979  -2.1312  -2.1311
    -2.0299  -2.0299  -1.9105  -1.9105  -1.6098  -1.6098  -1.5705  -1.5705
    -1.3725  -1.3725  -1.2945  -1.2945  -1.1926  -1.1926  -0.9687  -0.9687
    -0.9239  -0.9239  -0.6305  -0.6305  -0.5782  -0.5782   0.6383   0.6383
     1.2260   1.2261   1.4393   1.4394   1.6057   1.6057   2.0710   2.0710
     2.2893   2.2893   2.3615   2.3615   2.6679   2.6679   3.1764   3.1764
     3.4071   3.4071   3.6920   3.6921

          k =-0.5000-2.5105 0.0000 ( 82216 PWs)   bands (ev):

  -103.2267-103.2266-103.2244-103.2244-102.8853-102.8852 -68.3027 -68.3026
   -68.3025 -68.3025 -63.7915 -63.7914 -63.7899 -63.7899 -63.6305 -63.6305
   -63.6255 -63.6255 -63.5120 -63.5120 -63.5024 -63.5024 -63.3781 -63.3780
   -63.3736 -63.3736 -63.1557 -63.1556 -34.8438 -34.8438 -34.8429 -34.8429
   -34.8183 -34.8183 -34.8162 -34.8162 -34.7807 -34.7806 -34.7785 -34.7785
   -11.2994 -11.2994 -11.1742 -11.1742 -11.1301 -11.1300 -11.0500 -11.0500
   -10.8101 -10.8100  -6.3193  -6.3193  -6.1013  -6.1013  -5.5435  -5.5435
    -5.0436  -5.0436  -4.8495  -4.8495  -4.0249  -4.0248  -3.9810  -3.9809
    -3.7379  -3.7379  -3.5845  -3.5845  -3.4445  -3.4445  -3.4101  -3.4101
    -3.3479  -3.3479  -3.0546  -3.0546  -2.8616  -2.8616  -2.8201  -2.8201
    -2.5283  -2.5283  -2.3676  -2.3676  -2.2247  -2.2247  -2.1189  -2.1189
    -2.0100  -2.0100  -1.8412  -1.8412  -1.8170  -1.8169  -1.6189  -1.6188
    -1.3892  -1.3892  -1.2643  -1.2643  -1.1983  -1.1983  -1.0756  -1.0756
    -0.9926  -0.9925  -0.7881  -0.7881  -0.5713  -0.5713   0.6041   0.6041
     1.2471   1.2472   1.4369   1.4369   1.4867   1.4867   2.2063   2.2063
     2.2871   2.2871   2.6167   2.6167   2.8531   2.8532   3.2448   3.2448
     3.3203   3.3203   3.8207   3.8210

     the Fermi energy is     0.2195 ev

!    total energy              =   -9109.83780320 Ry
     total all-electron energy =     -9109.837803 Ry
     estimated scf accuracy    <          6.3E-09 Ry
     smearing contrib. (-TS)   =      -0.00004679 Ry
     internal energy E=F+TS    =   -9109.83775641 Ry

     The total energy is F=E-TS. E is the sum of the following terms:
     one-electron contribution =  -16954.04139745 Ry
     hartree contribution      =    8337.15839678 Ry
     xc contribution           =    -365.47385005 Ry
     ewald contribution        =    6140.28163640 Ry
     one-center paw contrib.   =   -6267.76254208 Ry

     convergence has been achieved in  17 iterations

     negative rho (up, down):  6.566E-02 0.000E+00

     Forces acting on atoms (cartesian axes, Ry/au):

     atom    1 type  1   force =     0.00492316    0.01636548   -0.00759770
     atom    2 type  1   force =     0.00489180   -0.01636621    0.00759546
     atom    3 type  1   force =    -0.00491132    0.01636594   -0.00759883
     atom    4 type  1   force =    -0.00494726   -0.01636406    0.00760077
     atom    5 type  2   force =    -0.00424943    0.01839474   -0.00664581
     atom    6 type  2   force =    -0.00426591   -0.01839758    0.00663915
     atom    7 type  2   force =     0.00429875    0.01840223   -0.00666582
     atom    8 type  2   force =     0.00433888   -0.01840552    0.00669575
     atom    9 type  2   force =    -0.00000660    0.01111718   -0.00960788
     atom   10 type  2   force =     0.00003636   -0.01111558    0.00959662
     atom   11 type  3   force =     0.00333477   -0.01250748   -0.01889047
     atom   12 type  3   force =     0.00334643    0.01250898    0.01889055
     atom   13 type  3   force =    -0.00103567    0.00827131   -0.01379523
     atom   14 type  3   force =    -0.00103850   -0.00827129    0.01379053
     atom   15 type  3   force =    -0.00331567   -0.01250642   -0.01888766
     atom   16 type  3   force =    -0.00331864    0.01250761    0.01888447
     atom   17 type  3   force =     0.00100438    0.00827210   -0.01378776
     atom   18 type  3   force =     0.00099687   -0.00827132    0.01378846
     atom   19 type  3   force =    -0.00003980    0.01059596   -0.01550722
     atom   20 type  3   force =    -0.00004260   -0.01059606    0.01550262

     Total force =     0.085305     Total SCF correction =     0.000310


     Computing stress (Cartesian axis) and pressure


     negative rho (up, down):  6.566E-02 0.000E+00
          total   stress  (Ry/bohr**3)                   (kbar)     P=        9.24
   0.00004903  -0.00000000  -0.00000000            7.21       -0.00       -0.00
  -0.00000000   0.00011816  -0.00001210           -0.00       17.38       -1.78
  -0.00000000  -0.00001210   0.00002131           -0.00       -1.78        3.14

     Energy error            =      1.4E-02 Ry
     Gradient error          =      1.9E-02 Ry/Bohr

     number of scf cycles    =   2
     number of bfgs steps    =   1

     energy             old  =   -9109.8234348754 Ry
     energy             new  =   -9109.8378032003 Ry

     CASE: energy            _new < energy            _old

     new trust radius        =       0.0381554972 bohr
     new conv_thr            =       0.0000000019 Ry


ATOMIC_POSITIONS (angstrom)
Ta              15.4004312971        0.9435280057       12.4303565379
Ta               6.5801039329        2.7161680172       12.6054791796
Ta               2.2565678803        0.9435297412       12.4302042783
Ta              11.0768288499        2.7161647054       12.6056287487
Ni              12.8569307800        0.9485648635       11.7511458397
Ni               4.0366320372        2.7111249653       13.2846773518
Ni               4.8000091256        0.9485701436       11.7508678627
Ni              13.6203364386        2.7111205871       13.2849935669
Ni               8.8283669008        0.9328760045       12.3529099376
Ni               0.0081155747        2.7268166452       12.6828973756
Te              14.2186435124        2.7225403988       10.5051774665
Te               5.3983373132        0.9371552219       14.5306471021
Te              10.5930594557        0.9288511315       10.4956157196
Te               1.7727745807        2.7308420100       14.5402045665
Te               3.4381214449        2.7225412427       10.5049540339
Te              12.2584184378        0.9371529423       14.5308652738
Te               7.0639399568        0.9288511455       10.4954618163
Te              15.8842143931        2.7308424883       14.5403758712
Te               0.0082378390        0.9318240111       10.8134676391
Te               8.8284926126        2.7278681833       14.2223208318



     Writing config-only to output data dir /ddn/data/physics/eamoujaes/2D-Ta2Ni3Te5/ELASTIC/C22/OUT/ta2ni3te5.save/ :
     XML data file
     NEW-OLD atomic charge density approx. for the potential

     negative rho (up, down):  6.490E-02 0.000E+00

     total cpu time spent up to now is     2211.2 secs

     Self-consistent Calculation

     iteration #  1     ecut=    60.00 Ry     beta= 0.20
     Davidson diagonalization with overlap
     c_bands:  2 eigenvalues not converged
     ethr =  1.00E-06,  avg # of iterations = 11.3

     negative rho (up, down):  6.501E-02 0.000E+00

     total cpu time spent up to now is     2252.5 secs

     total energy              =   -9109.84141199 Ry
     estimated scf accuracy    <       0.01540248 Ry

     iteration #  2     ecut=    60.00 Ry     beta= 0.20
     Davidson diagonalization with overlap
     ethr =  7.00E-06,  avg # of iterations =  3.3

     negative rho (up, down):  6.506E-02 0.000E+00

     total cpu time spent up to now is     2289.8 secs

     total energy              =   -9109.84351963 Ry
     estimated scf accuracy    <       0.05997657 Ry

     iteration #  3     ecut=    60.00 Ry     beta= 0.20
     Davidson diagonalization with overlap
     ethr =  7.00E-06,  avg # of iterations =  2.0

     negative rho (up, down):  6.509E-02 0.000E+00

     total cpu time spent up to now is     2326.7 secs

     total energy              =   -9109.84670817 Ry
     estimated scf accuracy    <       0.00453578 Ry

     iteration #  4     ecut=    60.00 Ry     beta= 0.20
     Davidson diagonalization with overlap
     ethr =  2.06E-06,  avg # of iterations =  1.4

     negative rho (up, down):  6.522E-02 0.000E+00

     total cpu time spent up to now is     2363.7 secs

     total energy              =   -9109.84671226 Ry
     estimated scf accuracy    <       0.00129952 Ry

     iteration #  5     ecut=    60.00 Ry     beta= 0.20
     Davidson diagonalization with overlap
     ethr =  5.91E-07,  avg # of iterations =  2.3

     negative rho (up, down):  6.526E-02 0.000E+00

     total cpu time spent up to now is     2400.9 secs

     total energy              =   -9109.84674154 Ry
     estimated scf accuracy    <       0.00041361 Ry

     iteration #  6     ecut=    60.00 Ry     beta= 0.20
     Davidson diagonalization with overlap
     ethr =  1.88E-07,  avg # of iterations =  2.0

     negative rho (up, down):  6.536E-02 0.000E+00

     total cpu time spent up to now is     2437.8 secs

     total energy              =   -9109.84672425 Ry
     estimated scf accuracy    <       0.00048978 Ry

     iteration #  7     ecut=    60.00 Ry     beta= 0.20
     Davidson diagonalization with overlap
     ethr =  1.88E-07,  avg # of iterations =  1.3

     negative rho (up, down):  6.542E-02 0.000E+00

     total cpu time spent up to now is     2474.6 secs

     total energy              =   -9109.84675226 Ry
     estimated scf accuracy    <       0.00006257 Ry

     iteration #  8     ecut=    60.00 Ry     beta= 0.20
     Davidson diagonalization with overlap
     ethr =  2.84E-08,  avg # of iterations =  2.0

     negative rho (up, down):  6.545E-02 0.000E+00

     total cpu time spent up to now is     2512.0 secs

     total energy              =   -9109.84675898 Ry
     estimated scf accuracy    <       0.00004123 Ry

     iteration #  9     ecut=    60.00 Ry     beta= 0.20
     Davidson diagonalization with overlap
     ethr =  1.87E-08,  avg # of iterations =  1.0

     negative rho (up, down):  6.546E-02 0.000E+00

     total cpu time spent up to now is     2549.3 secs

     total energy              =   -9109.84676231 Ry
     estimated scf accuracy    <       0.00001185 Ry

     iteration # 10     ecut=    60.00 Ry     beta= 0.20
     Davidson diagonalization with overlap
     ethr =  5.39E-09,  avg # of iterations =  2.2

     negative rho (up, down):  6.546E-02 0.000E+00

     total cpu time spent up to now is     2586.4 secs

     total energy              =   -9109.84676354 Ry
     estimated scf accuracy    <       0.00000495 Ry

     iteration # 11     ecut=    60.00 Ry     beta= 0.20
     Davidson diagonalization with overlap
     ethr =  2.25E-09,  avg # of iterations =  1.3

     negative rho (up, down):  6.548E-02 0.000E+00

     total cpu time spent up to now is     2623.4 secs

     total energy              =   -9109.84676492 Ry
     estimated scf accuracy    <       0.00000253 Ry

     iteration # 12     ecut=    60.00 Ry     beta= 0.20
     Davidson diagonalization with overlap
     ethr =  1.15E-09,  avg # of iterations =  2.0

     negative rho (up, down):  6.548E-02 0.000E+00

     total cpu time spent up to now is     2661.0 secs

     total energy              =   -9109.84676548 Ry
     estimated scf accuracy    <       0.00000088 Ry

     iteration # 13     ecut=    60.00 Ry     beta= 0.20
     Davidson diagonalization with overlap
     ethr =  3.99E-10,  avg # of iterations =  2.2

     negative rho (up, down):  6.549E-02 0.000E+00

     total cpu time spent up to now is     2698.0 secs

     total energy              =   -9109.84676561 Ry
     estimated scf accuracy    <       0.00000029 Ry

     iteration # 14     ecut=    60.00 Ry     beta= 0.20
     Davidson diagonalization with overlap
     ethr =  1.33E-10,  avg # of iterations =  2.3

     negative rho (up, down):  6.549E-02 0.000E+00

     total cpu time spent up to now is     2736.0 secs

     total energy              =   -9109.84676565 Ry
     estimated scf accuracy    <       0.00000019 Ry

     iteration # 15     ecut=    60.00 Ry     beta= 0.20
     Davidson diagonalization with overlap
     ethr =  8.44E-11,  avg # of iterations =  2.0

     negative rho (up, down):  6.548E-02 0.000E+00

     total cpu time spent up to now is     2773.4 secs

     total energy              =   -9109.84676566 Ry
     estimated scf accuracy    <       0.00000005 Ry

     iteration # 16     ecut=    60.00 Ry     beta= 0.20
     Davidson diagonalization with overlap
     ethr =  2.22E-11,  avg # of iterations =  5.0

     negative rho (up, down):  6.548E-02 0.000E+00

     total cpu time spent up to now is     2811.4 secs

     total energy              =   -9109.84676567 Ry
     estimated scf accuracy    <       0.00000003 Ry

     iteration # 17     ecut=    60.00 Ry     beta= 0.20
     Davidson diagonalization with overlap
     ethr =  1.14E-11,  avg # of iterations =  2.0

     negative rho (up, down):  6.548E-02 0.000E+00

     total cpu time spent up to now is     2848.7 secs

     total energy              =   -9109.84676568 Ry
     estimated scf accuracy    <       0.00000003 Ry

     iteration # 18     ecut=    60.00 Ry     beta= 0.20
     Davidson diagonalization with overlap
     ethr =  1.14E-11,  avg # of iterations =  1.3

     negative rho (up, down):  6.548E-02 0.000E+00

     total cpu time spent up to now is     2885.8 secs

     total energy              =   -9109.84676568 Ry
     estimated scf accuracy    <       0.00000002 Ry

     iteration # 19     ecut=    60.00 Ry     beta= 0.20
     Davidson diagonalization with overlap
     ethr =  1.05E-11,  avg # of iterations =  1.0

     negative rho (up, down):  6.548E-02 0.000E+00

     total cpu time spent up to now is     2922.7 secs

     total energy              =   -9109.84676568 Ry
     estimated scf accuracy    <       0.00000002 Ry

     iteration # 20     ecut=    60.00 Ry     beta= 0.20
     Davidson diagonalization with overlap
     ethr =  8.22E-12,  avg # of iterations =  1.0

     negative rho (up, down):  6.548E-02 0.000E+00

     total cpu time spent up to now is     2959.8 secs

     total energy              =   -9109.84676568 Ry
     estimated scf accuracy    <          4.2E-09 Ry

     iteration # 21     ecut=    60.00 Ry     beta= 0.20
     Davidson diagonalization with overlap
     ethr =  1.91E-12,  avg # of iterations =  1.5

     negative rho (up, down):  6.548E-02 0.000E+00

     total cpu time spent up to now is     2996.6 secs

     End of self-consistent calculation

          k = 0.0000 0.0000 0.0000 ( 82143 PWs)   bands (ev):

  -103.2146-103.2145-103.2008-103.2007-102.8755-102.8754 -68.3197 -68.3197
   -68.3193 -68.3192 -63.7741 -63.7740 -63.7671 -63.7670 -63.6238 -63.6236
   -63.5601 -63.5600 -63.5315 -63.5314 -63.4780 -63.4779 -63.3686 -63.3683
   -63.3683 -63.3679 -63.1373 -63.1372 -34.8407 -34.8402 -34.8385 -34.8384
   -34.8047 -34.8012 -34.8008 -34.7970 -34.7339 -34.7338 -34.7336 -34.7335
   -12.9656 -12.6693 -12.5709 -12.1078 -12.0918 -11.8737 -11.7853 -11.7654
   -11.6832 -11.4365  -6.1813  -5.9216  -5.7445  -5.6516  -5.4427  -5.4365
    -5.4076  -4.7516  -4.6261  -4.1944  -4.1177  -3.7895  -3.7532  -3.7298
    -3.5649  -3.5562  -3.4190  -3.3905  -3.0186  -2.9653  -2.9541  -2.8583
    -2.6462  -2.5621  -2.5596  -2.4471  -2.4390  -2.2592  -2.2106  -2.1495
    -2.1079  -2.0816  -1.9857  -1.8810  -1.8227  -1.7912  -1.7572  -1.6969
    -1.6903  -1.6565  -1.5469  -1.4480  -1.2624  -1.2292  -1.1097  -1.0469
    -1.0101  -0.8972  -0.8482  -0.7377  -0.5750  -0.4981  -0.4405  -0.4192
    -0.3384  -0.3152  -0.3127  -0.2698   0.1810   0.1846   0.2270   0.4984
     0.8892   1.2661   1.3606   1.4023   1.5540   1.5977   1.6186   1.6496
     2.2119   2.2788   2.3158   2.6632   2.8142   2.8809   3.3465   3.5787
     3.7059   3.7632   3.7920   3.8406

          k = 0.0000 0.5021 0.0000 ( 82113 PWs)   bands (ev):

  -103.2143-103.2142-103.2012-103.2011-102.8755-102.8754 -68.3194 -68.3194
   -68.3190 -68.3190 -63.7739 -63.7738 -63.7674 -63.7672 -63.6230 -63.6229
   -63.5653 -63.5652 -63.5269 -63.5267 -63.4784 -63.4784 -63.3684 -63.3683
   -63.3682 -63.3681 -63.1375 -63.1373 -34.8394 -34.8390 -34.8373 -34.8371
   -34.8032 -34.7999 -34.7995 -34.7959 -34.7448 -34.7448 -34.7445 -34.7445
   -12.8573 -12.5636 -12.4724 -12.0448 -12.0078 -11.8056 -11.7257 -11.6916
   -11.6106 -11.3854  -6.0777  -5.8226  -5.6325  -5.5309  -5.3576  -5.3428
    -5.2932  -4.6577  -4.5444  -4.1426  -4.0887  -3.8745  -3.7907  -3.7764
    -3.6133  -3.5681  -3.5178  -3.4276  -3.0529  -3.0177  -3.0135  -2.7314
    -2.7197  -2.7120  -2.6382  -2.6215  -2.5723  -2.5597  -2.1888  -2.1397
    -2.1347  -2.1059  -2.0088  -1.9584  -1.9180  -1.8363  -1.8152  -1.7813
    -1.7444  -1.7085  -1.5326  -1.4555  -1.4103  -1.2615  -1.2161  -1.1941
    -1.1227  -1.1001  -0.8660  -0.8478  -0.7517  -0.7512  -0.7065  -0.4954
    -0.4828  -0.4290  -0.2661  -0.1992   0.1226   0.1630   0.3575   0.5613
     0.9137   1.1526   1.2130   1.3090   1.3748   1.5049   1.5136   1.7781
     2.0681   2.1481   2.3352   2.4399   2.5764   2.8106   3.0442   3.2052
     3.2752   3.4051   3.6159   3.7720

          k = 0.0000 1.0042 0.0000 ( 82126 PWs)   bands (ev):

  -103.2133-103.2132-103.2021-103.2020-102.8754-102.8754 -68.3186 -68.3186
   -68.3182 -68.3182 -63.7736 -63.7734 -63.7680 -63.7679 -63.6210 -63.6209
   -63.5754 -63.5753 -63.5179 -63.5178 -63.4800 -63.4798 -63.3684 -63.3683
   -63.3683 -63.3682 -63.1378 -63.1377 -34.8361 -34.8357 -34.8340 -34.8337
   -34.7992 -34.7966 -34.7960 -34.7930 -34.7735 -34.7732 -34.7731 -34.7729
   -12.5456 -12.2612 -12.1923 -11.8682 -11.7806 -11.6335 -11.5452 -11.4774
   -11.4121 -11.2464  -5.8131  -5.5607  -5.3430  -5.2631  -5.1364  -5.0494
    -5.0024  -4.4821  -4.4524  -4.2138  -4.0412  -4.0198  -3.9162  -3.8988
    -3.8360  -3.8056  -3.7313  -3.5425  -3.3934  -3.2652  -3.1054  -3.0947
    -3.0596  -2.9453  -2.9082  -2.7458  -2.6442  -2.5247  -2.4910  -2.4461
    -2.3362  -2.2943  -2.2499  -2.1731  -2.1089  -2.0281  -1.9576  -1.9067
    -1.8869  -1.7718  -1.6891  -1.6332  -1.5934  -1.4308  -1.3914  -1.3801
    -1.2737  -1.1422  -1.0507  -0.9264  -0.8838  -0.8583  -0.8157  -0.8052
    -0.7827  -0.6231  -0.3555  -0.2633  -0.1661  -0.1518   0.7015   0.9035
     0.9200   1.1183   1.1344   1.2398   1.2771   1.3671   1.4816   1.6935
     1.9832   2.0439   2.0962   2.3080   2.5138   2.5835   2.7765   2.7861
     2.9519   3.1273   4.0012   4.1420

          k = 0.0000 1.5063 0.0000 ( 82222 PWs)   bands (ev):

  -103.2117-103.2117-103.2036-103.2036-102.8754-102.8754 -68.3176 -68.3175
   -68.3173 -68.3173 -63.7729 -63.7728 -63.7689 -63.7687 -63.6178 -63.6177
   -63.5866 -63.5866 -63.5085 -63.5084 -63.4826 -63.4825 -63.3683 -63.3683
   -63.3683 -63.3682 -63.1386 -63.1385 -34.8322 -34.8317 -34.8300 -34.8297
   -34.8088 -34.8085 -34.8082 -34.8078 -34.7941 -34.7922 -34.7913 -34.7894
   -12.0757 -11.8137 -11.7857 -11.6148 -11.4836 -11.4327 -11.2724 -11.1588
   -11.1571 -11.0630  -5.6352  -5.3708  -5.2777  -5.2147  -4.9705  -4.9327
    -4.8010  -4.7433  -4.6377  -4.5044  -4.3337  -4.2296  -4.2234  -4.0410
    -3.9300  -3.9101  -3.7761  -3.6865  -3.6793  -3.4445  -3.3684  -3.3552
    -3.2707  -3.0379  -2.9412  -2.9405  -2.9062  -2.8161  -2.6185  -2.5892
    -2.5540  -2.5049  -2.4472  -2.2427  -2.1779  -2.0931  -2.0813  -1.9995
    -1.9775  -1.9340  -1.8910  -1.6933  -1.6615  -1.5114  -1.4541  -1.3894
    -1.2839  -1.2733  -1.2402  -1.1888  -1.0286  -1.0127  -0.9945  -0.9485
    -0.7456  -0.7054  -0.6022  -0.4413  -0.4223  -0.3476   0.7648   0.8930
     1.0203   1.1218   1.1526   1.3794   1.5432   1.5652   1.6956   1.7359
     2.0308   2.0553   2.0846   2.3901   2.4665   2.7159   2.8464   2.8779
     3.1957   3.2581   3.8710   3.9716

          k = 0.0000 2.0084 0.0000 ( 82272 PWs)   bands (ev):

  -103.2098-103.2097-103.2055-103.2055-102.8754-102.8754 -68.3168 -68.3167
   -68.3166 -68.3166 -63.7721 -63.7719 -63.7699 -63.7698 -63.6129 -63.6128
   -63.5969 -63.5968 -63.5002 -63.5001 -63.4865 -63.4864 -63.3683 -63.3683
   -63.3682 -63.3682 -63.1391 -63.1391 -34.8375 -34.8373 -34.8367 -34.8364
   -34.8283 -34.8281 -34.8261 -34.8260 -34.7900 -34.7890 -34.7876 -34.7866
   -11.5460 -11.4198 -11.3463 -11.3002 -11.2754 -11.2197 -11.0374 -10.9930
   -10.8975 -10.8599  -5.9391  -5.9359  -5.8839  -5.8179  -5.2492  -5.2234
    -4.9742  -4.8957  -4.7533  -4.5907  -4.2992  -4.2565  -4.1388  -3.8918
    -3.8436  -3.7050  -3.6747  -3.6105  -3.4839  -3.4757  -3.3556  -3.3443
    -3.2631  -3.2069  -3.1727  -3.1480  -2.8977  -2.8467  -2.7116  -2.6994
    -2.5698  -2.4967  -2.4673  -2.2782  -2.1535  -2.1075  -2.0739  -2.0590
[...]
     1.9817   2.0345   2.0680   2.2697   2.5029   2.5657   2.7320   2.7391
     2.9230   3.0906   3.9790   4.1079

          k = 0.0000 1.5063 0.0000 ( 82222 PWs)   bands (ev):

  -103.1974-103.1974-103.1899-103.1899-102.8603-102.8603 -68.3390 -68.3390
   -68.3388 -68.3387 -63.7561 -63.7561 -63.7521 -63.7519 -63.5908 -63.5908
   -63.5644 -63.5644 -63.5005 -63.5004 -63.4779 -63.4778 -63.3601 -63.3600
   -63.3539 -63.3539 -63.1134 -63.1134 -34.8458 -34.8454 -34.8438 -34.8435
   -34.8213 -34.8212 -34.8208 -34.8205 -34.8036 -34.8017 -34.8007 -34.7989
   -12.0133 -11.7442 -11.7329 -11.5777 -11.4282 -11.3944 -11.2173 -11.1339
   -11.1068 -11.0359  -5.5876  -5.3244  -5.1953  -5.1411  -4.8875  -4.8743
    -4.7313  -4.6889  -4.5820  -4.4363  -4.2907  -4.1940  -4.1797  -3.9936
    -3.8972  -3.8666  -3.7441  -3.6667  -3.6373  -3.4117  -3.3158  -3.3102
    -3.2479  -3.0193  -2.9196  -2.9112  -2.8538  -2.7816  -2.5876  -2.5449
    -2.5075  -2.4661  -2.4203  -2.1920  -2.1387  -2.0171  -2.0149  -1.9868
    -1.9412  -1.9225  -1.8688  -1.6689  -1.6201  -1.5094  -1.4277  -1.3673
    -1.2808  -1.2594  -1.2156  -1.1883  -1.0608  -1.0130  -0.9881  -0.9715
    -0.7489  -0.7146  -0.5802  -0.4747  -0.4139  -0.3478   0.7603   0.8857
     1.0136   1.0633   1.0996   1.3486   1.5257   1.5482   1.6337   1.7104
     2.0021   2.0378   2.0700   2.3235   2.4456   2.7068   2.7801   2.8269
     3.1437   3.2314   3.8153   3.9081

          k = 0.0000 2.0084 0.0000 ( 82272 PWs)   bands (ev):

  -103.1956-103.1956-103.1917-103.1917-102.8603-102.8603 -68.3382 -68.3382
   -68.3381 -68.3380 -63.7553 -63.7550 -63.7531 -63.7530 -63.5869 -63.5869
   -63.5736 -63.5735 -63.4928 -63.4927 -63.4814 -63.4814 -63.3600 -63.3600
   -63.3539 -63.3539 -63.1140 -63.1139 -34.8495 -34.8493 -34.8487 -34.8485
   -34.8422 -34.8421 -34.8402 -34.8401 -34.7995 -34.7986 -34.7972 -34.7962
   -11.4917 -11.3820 -11.2637 -11.2538 -11.2248 -11.1576 -10.9886 -10.9402
   -10.8736 -10.8333  -5.8728  -5.8552  -5.7991  -5.7550  -5.1874  -5.1721
    -4.9197  -4.8271  -4.7142  -4.5342  -4.2769  -4.2251  -4.1111  -3.8807
    -3.8002  -3.6568  -3.6552  -3.5777  -3.4690  -3.4478  -3.3287  -3.2999
    -3.2540  -3.1852  -3.1445  -3.1429  -2.8120  -2.7797  -2.6768  -2.6464
    -2.5312  -2.4670  -2.4242  -2.2284  -2.1344  -2.0662  -2.0423  -2.0071
    -1.9837  -1.9416  -1.9292  -1.7029  -1.6998  -1.6786  -1.5001  -1.4964
    -1.3407  -1.3288  -1.2576  -1.2273  -1.1925  -1.1223  -1.0721  -1.0121
    -0.8370  -0.7599  -0.7229  -0.6536  -0.5541  -0.5530   0.5704   0.6609
     1.0876   1.1771   1.2561   1.2751   1.5619   1.8711   1.9111   2.0990
     2.2057   2.2782   2.3234   2.4465   2.5682   2.6921   3.0521   3.1743
     3.2494   3.4384   3.5606   3.6062

          k = 0.0000-2.5105 0.0000 ( 82320 PWs)   bands (ev):

  -103.1937-103.1937-103.1935-103.1935-102.8603-102.8603 -68.3379 -68.3379
   -68.3378 -68.3378 -63.7543 -63.7542 -63.7541 -63.7541 -63.5816 -63.5815
   -63.5809 -63.5808 -63.4866 -63.4864 -63.4863 -63.4861 -63.3601 -63.3601
   -63.3539 -63.3539 -63.1142 -63.1142 -34.8599 -34.8599 -34.8590 -34.8590
   -34.8410 -34.8410 -34.8390 -34.8390 -34.7977 -34.7977 -34.7955 -34.7955
   -11.2336 -11.2334 -11.0457 -11.0432 -11.0401 -11.0394 -10.9814 -10.9799
   -10.7615 -10.7613  -6.1096  -6.1090  -6.0980  -6.0976  -5.4427  -5.4412
    -4.9839  -4.9822  -4.7449  -4.7432  -4.0102  -4.0087  -3.8692  -3.8669
    -3.7693  -3.7685  -3.4261  -3.4239  -3.3924  -3.3907  -3.3482  -3.3476
    -3.3424  -3.3407  -3.0428  -3.0416  -2.8398  -2.8390  -2.7503  -2.7493
    -2.4436  -2.4420  -2.2644  -2.2621  -2.1536  -2.1519  -2.0065  -2.0029
    -1.9509  -1.9506  -1.7803  -1.7768  -1.7438  -1.7437  -1.6597  -1.6550
    -1.3206  -1.3187  -1.2098  -1.2081  -1.1927  -1.1911  -1.0336  -1.0312
    -0.9210  -0.9207  -0.8187  -0.8175  -0.5915  -0.5908   0.5710   0.5727
     1.1562   1.1567   1.2697   1.2699   1.6113   1.6131   1.9930   1.9934
     2.4571   2.4579   2.5106   2.5108   2.8037   2.8047   3.2421   3.2431
     3.3623   3.3630   3.5231   3.5288

          k =-0.5000 0.0000 0.0000 ( 82186 PWs)   bands (ev):

  -103.2000-103.2000-103.1874-103.1873-102.8603-102.8603 -68.3411 -68.3411
   -68.3407 -68.3407 -63.7574 -63.7574 -63.7505 -63.7505 -63.5953 -63.5953
   -63.5363 -63.5363 -63.5258 -63.5257 -63.4741 -63.4741 -63.3601 -63.3601
   -63.3539 -63.3539 -63.1122 -63.1122 -34.8541 -34.8541 -34.8522 -34.8522
   -34.8127 -34.8127 -34.8074 -34.8074 -34.7475 -34.7475 -34.7471 -34.7471
   -12.8060 -12.8060 -12.2220 -12.2220 -12.0067 -12.0067 -11.7225 -11.7225
   -11.4911 -11.4911  -6.0598  -6.0598  -5.6929  -5.6929  -5.3631  -5.3631
    -4.9570  -4.9570  -4.4968  -4.4967  -3.8290  -3.8290  -3.6221  -3.6221
    -3.4057  -3.4057  -3.2911  -3.2911  -3.1203  -3.1203  -2.8635  -2.8635
    -2.5415  -2.5415  -2.5059  -2.5059  -2.2268  -2.2268  -2.2116  -2.2116
    -1.9288  -1.9288  -1.9076  -1.9076  -1.8544  -1.8544  -1.6707  -1.6707
    -1.6460  -1.6460  -1.6082  -1.6082  -1.2157  -1.2156  -1.0742  -1.0742
    -0.9655  -0.9655  -0.6739  -0.6739  -0.5999  -0.5999  -0.3639  -0.3639
    -0.3292  -0.3292  -0.2974  -0.2974   0.1751   0.1751   0.3595   0.3595
     1.0139   1.0139   1.3863   1.3863   1.5041   1.5041   1.5109   1.5109
     2.2421   2.2421   2.5501   2.5501   2.7539   2.7540   3.4583   3.4583
     3.7274   3.7274   3.7332   3.7332

          k =-0.5000 0.5021 0.0000 ( 82144 PWs)   bands (ev):

  -103.1997-103.1997-103.1877-103.1876-102.8603-102.8603 -68.3408 -68.3408
   -68.3404 -68.3404 -63.7573 -63.7572 -63.7507 -63.7507 -63.5946 -63.5945
   -63.5435 -63.5435 -63.5190 -63.5189 -63.4745 -63.4744 -63.3601 -63.3601
   -63.3539 -63.3539 -63.1122 -63.1122 -34.8529 -34.8528 -34.8509 -34.8509
   -34.8113 -34.8113 -34.8062 -34.8062 -34.7583 -34.7583 -34.7580 -34.7580
   -12.7000 -12.7000 -12.1278 -12.1278 -11.9431 -11.9430 -11.6513 -11.6513
   -11.4328 -11.4328  -5.9544  -5.9544  -5.5828  -5.5828  -5.2599  -5.2599
    -4.8641  -4.8641  -4.4302  -4.4302  -3.8713  -3.8713  -3.6530  -3.6530
    -3.3880  -3.3880  -3.3508  -3.3508  -3.2204  -3.2204  -2.8412  -2.8412
    -2.6301  -2.6301  -2.5995  -2.5995  -2.5135  -2.5135  -2.1295  -2.1295
    -1.9967  -1.9966  -1.9313  -1.9313  -1.9003  -1.9002  -1.8065  -1.8065
    -1.6765  -1.6765  -1.6249  -1.6249  -1.2523  -1.2523  -1.1984  -1.1984
    -1.0706  -1.0706  -0.8443  -0.8443  -0.7367  -0.7367  -0.6313  -0.6312
    -0.4488  -0.4488  -0.2338  -0.2338   0.1576   0.1576   0.4475   0.4475
     1.0358   1.0358   1.1988   1.1988   1.3728   1.3728   1.5614   1.5614
     2.0522   2.0522   2.4265   2.4265   2.5885   2.5885   3.1301   3.1301
     3.2855   3.2855   3.7357   3.7357

          k =-0.5000 1.0042 0.0000 ( 82126 PWs)   bands (ev):

  -103.1988-103.1988-103.1886-103.1885-102.8603-102.8603 -68.3400 -68.3400
   -68.3397 -68.3397 -63.7569 -63.7568 -63.7512 -63.7512 -63.5931 -63.5931
   -63.5540 -63.5540 -63.5093 -63.5093 -63.4757 -63.4756 -63.3601 -63.3601
   -63.3539 -63.3539 -63.1126 -63.1126 -34.8496 -34.8496 -34.8476 -34.8476
   -34.8077 -34.8077 -34.8033 -34.8033 -34.7864 -34.7864 -34.7861 -34.7861
   -12.3955 -12.3955 -11.8639 -11.8639 -11.7640 -11.7640 -11.4577 -11.4577
   -11.2694 -11.2694  -5.6793  -5.6793  -5.2945  -5.2945  -4.9907  -4.9907
    -4.6808  -4.6808  -4.2981  -4.2981  -4.0485  -4.0485  -3.8433  -3.8433
    -3.5139  -3.5139  -3.4682  -3.4682  -3.4361  -3.4361  -3.1275  -3.1275
    -3.0106  -3.0106  -2.7748  -2.7748  -2.5441  -2.5441  -2.4414  -2.4414
    -2.2646  -2.2645  -2.2230  -2.2230  -1.9683  -1.9683  -1.9289  -1.9288
    -1.7740  -1.7740  -1.7022  -1.7022  -1.4498  -1.4498  -1.3437  -1.3437
    -1.1678  -1.1678  -1.0852  -1.0851  -0.9367  -0.9367  -0.7612  -0.7612
    -0.7035  -0.7035  -0.2829  -0.2829  -0.1492  -0.1492   0.7605   0.7605
     1.0112   1.0112   1.2155   1.2155   1.2645   1.2645   1.6135   1.6135
     1.7657   1.7657   2.2077   2.2077   2.5176   2.5176   2.7985   2.7985
     2.9685   2.9685   4.0625   4.0625

          k =-0.5000 1.5063 0.0000 ( 82184 PWs)   bands (ev):

  -103.1974-103.1974-103.1899-103.1899-102.8603-102.8603 -68.3390 -68.3390
   -68.3388 -68.3388 -63.7561 -63.7561 -63.7520 -63.7520 -63.5908 -63.5908
   -63.5643 -63.5643 -63.5004 -63.5004 -63.4779 -63.4778 -63.3601 -63.3600
   -63.3538 -63.3538 -63.1134 -63.1134 -34.8456 -34.8456 -34.8436 -34.8436
   -34.8213 -34.8213 -34.8206 -34.8206 -34.8029 -34.8029 -34.7995 -34.7995
   -11.9399 -11.9399 -11.5314 -11.5314 -11.4733 -11.4733 -11.2072 -11.2072
   -11.0404 -11.0404  -5.4754  -5.4754  -5.0795  -5.0795  -4.9969  -4.9969
    -4.7468  -4.7468  -4.4413  -4.4413  -4.2809  -4.2809  -4.0092  -4.0092
    -3.8677  -3.8677  -3.7245  -3.7245  -3.5056  -3.5056  -3.3725  -3.3725
    -3.0330  -3.0330  -2.9544  -2.9544  -2.8435  -2.8435  -2.6446  -2.6446
    -2.4551  -2.4551  -2.3146  -2.3145  -2.0665  -2.0665  -2.0026  -2.0026
    -1.9224  -1.9224  -1.8151  -1.8151  -1.4777  -1.4777  -1.4030  -1.4030
    -1.2793  -1.2793  -1.1877  -1.1877  -1.0910  -1.0910  -0.9355  -0.9355
    -0.7684  -0.7684  -0.5193  -0.5193  -0.3729  -0.3729   0.7810   0.7810
     1.1541   1.1542   1.2936   1.2936   1.5145   1.5145   1.6598   1.6598
     1.8751   1.8752   2.1675   2.1675   2.5877   2.5877   2.9128   2.9128
     3.0867   3.0867   3.9735   3.9735

          k =-0.5000 2.0084 0.0000 ( 82226 PWs)   bands (ev):

  -103.1956-103.1956-103.1917-103.1917-102.8603-102.8603 -68.3382 -68.3382
   -68.3380 -68.3380 -63.7552 -63.7551 -63.7530 -63.7530 -63.5868 -63.5868
   -63.5735 -63.5735 -63.4927 -63.4927 -63.4814 -63.4813 -63.3600 -63.3600
   -63.3538 -63.3538 -63.1139 -63.1139 -34.8494 -34.8494 -34.8486 -34.8486
   -34.8422 -34.8422 -34.8401 -34.8401 -34.7992 -34.7992 -34.7966 -34.7966
   -11.4453 -11.4453 -11.2802 -11.2802 -11.1413 -11.1413 -10.9968 -10.9968
   -10.8410 -10.8410  -5.9121  -5.9121  -5.7014  -5.7014  -5.2181  -5.2181
    -4.8847  -4.8847  -4.6120  -4.6120  -4.2631  -4.2631  -3.9634  -3.9634
    -3.8192  -3.8191  -3.6030  -3.6030  -3.4139  -3.4139  -3.3025  -3.3025
    -3.2172  -3.2172  -3.0151  -3.0151  -2.9096  -2.9096  -2.6678  -2.6678
    -2.5004  -2.5004  -2.2994  -2.2994  -2.1164  -2.1164  -2.0754  -2.0754
    -1.9715  -1.9715  -1.8422  -1.8422  -1.5799  -1.5799  -1.5070  -1.5070
    -1.3583  -1.3583  -1.2595  -1.2595  -1.1653  -1.1653  -0.9763  -0.9763
    -0.9044  -0.9044  -0.6158  -0.6158  -0.5783  -0.5783   0.6138   0.6138
     1.1402   1.1402   1.4216   1.4216   1.5846   1.5846   2.0254   2.0254
     2.2331   2.2331   2.2937   2.2937   2.6389   2.6389   3.1025   3.1025
     3.3524   3.3524   3.5999   3.5999

          k =-0.5000-2.5105 0.0000 ( 82216 PWs)   bands (ev):

  -103.1937-103.1937-103.1935-103.1935-102.8603-102.8603 -68.3379 -68.3379
   -68.3378 -68.3378 -63.7542 -63.7542 -63.7540 -63.7539 -63.5814 -63.5814
   -63.5807 -63.5807 -63.4864 -63.4864 -63.4861 -63.4861 -63.3600 -63.3600
   -63.3538 -63.3537 -63.1141 -63.1141 -34.8599 -34.8599 -34.8590 -34.8590
   -34.8410 -34.8410 -34.8390 -34.8390 -34.7977 -34.7977 -34.7955 -34.7955
   -11.2335 -11.2334 -11.0545 -11.0545 -11.0188 -11.0188 -10.9932 -10.9932
   -10.7597 -10.7597  -6.2040  -6.2040  -5.9799  -5.9799  -5.4618  -5.4618
    -4.9705  -4.9705  -4.7695  -4.7695  -3.9605  -3.9605  -3.9430  -3.9430
    -3.6953  -3.6952  -3.5380  -3.5380  -3.4090  -3.4090  -3.3348  -3.3348
    -3.3195  -3.3195  -2.9819  -2.9819  -2.8113  -2.8113  -2.7378  -2.7378
    -2.4070  -2.4070  -2.3007  -2.3007  -2.1764  -2.1764  -2.0394  -2.0394
    -1.9355  -1.9355  -1.7863  -1.7863  -1.7757  -1.7757  -1.5722  -1.5722
    -1.3676  -1.3676  -1.2402  -1.2402  -1.1624  -1.1624  -1.0403  -1.0403
    -0.9563  -0.9563  -0.7805  -0.7805  -0.5892  -0.5892   0.5774   0.5774
     1.1600   1.1600   1.4079   1.4079   1.4598   1.4598   2.1260   2.1260
     2.2577   2.2577   2.5316   2.5316   2.8087   2.8087   3.2372   3.2372
     3.3250   3.3250   3.7153   3.7153

     the Fermi energy is     0.2024 ev

!    total energy              =   -9109.85156540 Ry
     total all-electron energy =     -9109.851565 Ry
     estimated scf accuracy    <          8.9E-11 Ry
     smearing contrib. (-TS)   =      -0.00017925 Ry
     internal energy E=F+TS    =   -9109.85138616 Ry

     The total energy is F=E-TS. E is the sum of the following terms:
     one-electron contribution =  -16844.23741522 Ry
     hartree contribution      =    8282.37632507 Ry
     xc contribution           =    -365.15741290 Ry
     ewald contribution        =    6084.92067199 Ry
     one-center paw contrib.   =   -6267.75355510 Ry

     convergence has been achieved in  15 iterations

     negative rho (up, down):  6.519E-02 0.000E+00

     Forces acting on atoms (cartesian axes, Ry/au):

     atom    1 type  1   force =     0.00000038   -0.00047587   -0.00045682
     atom    2 type  1   force =    -0.00001631    0.00047562    0.00045957
     atom    3 type  1   force =     0.00000814   -0.00047516   -0.00045844
     atom    4 type  1   force =     0.00000684    0.00047517    0.00046132
     atom    5 type  2   force =    -0.00046121   -0.00099289    0.00010176
     atom    6 type  2   force =    -0.00047173    0.00099198   -0.00010859
     atom    7 type  2   force =     0.00045260   -0.00099204    0.00010318
     atom    8 type  2   force =     0.00046715    0.00099332   -0.00010083
     atom    9 type  2   force =    -0.00000764    0.00010507    0.00062340
     atom   10 type  2   force =     0.00000462   -0.00010507   -0.00062599
     atom   11 type  3   force =    -0.00063966    0.00072516    0.00023220
     atom   12 type  3   force =    -0.00063666   -0.00072566   -0.00023015
     atom   13 type  3   force =    -0.00049427    0.00003091    0.00011133
     atom   14 type  3   force =    -0.00049278   -0.00003077   -0.00011435
     atom   15 type  3   force =     0.00064086    0.00072592    0.00023494
     atom   16 type  3   force =     0.00063791   -0.00072587   -0.00023336
     atom   17 type  3   force =     0.00049743    0.00003067    0.00010782
     atom   18 type  3   force =     0.00049368   -0.00003059   -0.00011154
     atom   19 type  3   force =     0.00000466   -0.00002025   -0.00091163
     atom   20 type  3   force =     0.00000600    0.00002034    0.00091619

     Total force =     0.003748     Total SCF correction =     0.000055


     Computing stress (Cartesian axis) and pressure


     negative rho (up, down):  6.519E-02 0.000E+00
          total   stress  (Ry/bohr**3)                   (kbar)     P=        2.44
   0.00002413   0.00000000  -0.00000000            3.55        0.00       -0.00
   0.00000000   0.00006612  -0.00000053            0.00        9.73       -0.08
  -0.00000000  -0.00000053  -0.00004045           -0.00       -0.08       -5.95

     Energy error            =      1.8E-05 Ry
     Gradient error          =      9.9E-04 Ry/Bohr

     bfgs converged in  14 scf cycles and  13 bfgs steps
     (criteria: energy <  1.0E-04 Ry, force <  1.0E-03 Ry/Bohr)

     End of BFGS Geometry Optimization

     Final energy             =   -9109.8515654038 Ry

     File /ddn/data/physics/eamoujaes/2D-Ta2Ni3Te5/ELASTIC/C22/OUT/ta2ni3te5.bfgs deleted, as requested
Begin final coordinates

ATOMIC_POSITIONS (angstrom)
Ta              15.4001391917        0.9530940970       12.4071111247
Ta               6.5799065945        2.7065995304       12.6287090286
Ta               2.2567232409        0.9530914319       12.4069193228
Ta              11.0769708935        2.7066029106       12.6289003503
Ni              12.8657845691        0.9529094220       11.7350608877
Ni               4.0455468376        2.7067848129       13.3007712935
Ni               4.7912416933        0.9529072402       11.7347787440
Ni              13.6114747016        2.7067846916       13.3010555992
Ni               8.8285042863        0.9500515071       12.3521716572
Ni               0.0082418934        2.7096397344       12.6836520958
Te              14.2286375077        2.7068834673       10.4544325688
Te               5.4083887516        0.9528122816       14.5813881689
Te              10.6010975082        0.9500533053       10.4977995017
Te               1.7808428263        2.7096400524       14.5380254660
Te               3.4281356517        2.7068777871       10.4542471825
Te              12.2483886528        0.9528149585       14.5815816021
Te               7.0559247506        0.9500514919       10.4976634738
Te              15.8761743549        2.7096424650       14.5381657408
Te               0.0080917736        0.9528024473       10.7783810561
Te               8.8283466840        2.7068888197       14.2574361353
End final coordinates



     Writing all to output data dir /ddn/data/physics/eamoujaes/2D-Ta2Ni3Te5/ELASTIC/C22/OUT/ta2ni3te5.save/ :
     XML data file, charge density, pseudopotentials, collected wavefunctions
 
     init_run     :     51.82s CPU     63.07s WALL (       1 calls)
     electrons    :   7661.63s CPU  10222.13s WALL (      14 calls)
     update_pot   :    347.15s CPU    442.15s WALL (      13 calls)
     forces       :     24.67s CPU     30.73s WALL (      14 calls)
     stress       :     43.10s CPU     66.51s WALL (      14 calls)

     Called by init_run:
     wfcinit      :      5.54s CPU      7.21s WALL (       1 calls)
     potinit      :     41.86s CPU     50.27s WALL (       1 calls)
     hinit0       :      2.57s CPU      2.99s WALL (       1 calls)

     Called by electrons:
     c_bands      :    543.96s CPU    793.39s WALL (     271 calls)
     sum_band     :    183.08s CPU    243.36s WALL (     271 calls)
     v_of_rho     :     93.41s CPU    124.73s WALL (     276 calls)
     newd         :     19.79s CPU     31.65s WALL (     276 calls)
                                       31.65s GPU  (     276 calls)
     PAW_pot      :   7454.15s CPU   9509.85s WALL (     289 calls)
     mix_rho      :     27.15s CPU     50.81s WALL (     271 calls)

     Called by c_bands:
     init_us_2    :     54.65s CPU     68.55s WALL (    7008 calls)
     init_us_2:cp :     46.49s CPU     58.61s WALL (     156 calls)
     init_us_2:gp :      7.99s CPU      9.75s WALL (    6852 calls)
     cegterg      :    312.36s CPU    523.98s WALL (    3252 calls)

     Called by *egterg:
     cdiaghg      :     28.10s CPU     44.47s WALL (   10793 calls)
                                       44.41s GPU  (   10793 calls)
     h_psi        :    228.33s CPU    387.70s WALL (   11069 calls)
                                      386.85s GPU  (   11069 calls)
     s_psi        :      5.01s CPU      6.87s WALL (   11069 calls)
     g_psi        :      0.03s CPU      3.19s WALL (    7805 calls)
                                        3.14s GPU  (    7805 calls)

     Called by h_psi:
     h_psi:calbec :      0.36s CPU     14.34s WALL (   11069 calls)
                                       14.25s GPU  (   11069 calls)
     vloc_psi     :    206.20s CPU    352.15s WALL (   11069 calls)
                                      352.09s GPU  (   11069 calls)
     add_vuspsi   :      3.79s CPU     17.62s WALL (   11069 calls)
                                       17.53s GPU  (   11069 calls)

     General routines
     calbec       :    126.96s CPU    215.74s WALL (   15317 calls)
     fft          :     27.02s CPU     28.40s WALL (    3932 calls)
                                        1.40s GPU  (    3656 calls)
     ffts         :      7.11s CPU      7.16s WALL (     547 calls)
                                        0.04s GPU  (     271 calls)
     fftw         :      1.19s CPU    309.29s WALL (  167404 calls)
                                      307.80s GPU  (  167404 calls)
     interpolate  :     38.62s CPU     40.85s WALL (     276 calls)
 
     Parallel routines
 
     PWSCF        :      2h24m CPU      3h12m WALL

 
   This run was terminated on:  12:31:42  28Jul2024            

=------------------------------------------------------------------------------=
   JOB DONE.
=------------------------------------------------------------------------------=
