
     Program PWSCF v.7.3 starts on 28Jul2024 at 12:32: 2 

     This program is part of the open-source Quantum ESPRESSO suite
     for quantum simulation of materials; please cite
         "P. Giannozzi et al., J. Phys.:Condens. Matter 21 395502 (2009);
         "P. Giannozzi et al., J. Phys.:Condens. Matter 29 465901 (2017);
         "P. Giannozzi et al., J. Chem. Phys. 152 154105 (2020);
          URL http://www.quantum-espresso.org", 
     in publications or presentations arising from this work. More details at
     http://www.quantum-espresso.org/quote

     Parallel version (MPI & OpenMP), running on      32 processor cores
     Number of MPI processes:                 1
     Threads/MPI process:                    32

     MPI processes distributed on     1 nodes
     206902 MiB available memory on the printing compute node when the environment starts
 
     Waiting for input...
     Reading input from standard input
Warning: card &CELL ignored
Warning: card CELL_DYNAMICS='BFGS' ignored
Warning: card PRESS=0.0 ignored
Warning: card CELL_DOFREE='2DXY' ignored
Warning: card / ignored

     Current dimensions of program PWSCF are:
     Max number of different atomic species (ntypx) = 10
     Max number of k-points (npk) =  40000
     Max angular momentum in pseudopotentials (lmaxx) =  4
read_pp_mesh; mismatch in mesh size, discarding the one in header
read_pp_mesh; mismatch in mesh size, discarding the one in header
read_pp_mesh; mismatch in mesh size, discarding the one in header
 
     Subspace diagonalization in iterative solution of the eigenvalue problem:
     a serial algorithm will be used

 
     G-vector sticks info
     --------------------
     sticks:   dense  smooth     PW     G-vecs:    dense   smooth      PW
     Sum        8635    4309   1207              1898627   671309  100137
 
     Using Slab Decomposition
 


     bravais-lattice index     =            0
     lattice parameter (alat)  =      33.3357  a.u.
     unit-cell volume          =   10688.9816 (a.u.)^3
     number of atoms/cell      =           20
     number of atomic types    =            3
     number of electrons       =       220.00
     number of Kohn-Sham states=          132
     kinetic-energy cutoff     =      60.0000  Ry
     charge density cutoff     =     480.0000  Ry
     scf convergence threshold =      1.0E-08
     mixing beta               =       0.2000
     number of iterations used =            8  plain     mixing
     energy convergence thresh.=      1.0E-04
     force convergence thresh. =      1.0E-03
     Exchange-correlation= SLA PW PBX PBC
                           (   1   4   3   4   0   0   0)
     nstep                     =         2000


     GPU acceleration is ACTIVE.  1 visible GPUs per MPI rank
     GPU-aware MPI enabled


     celldm(1)=  33.335714  celldm(2)=   0.000000  celldm(3)=   0.000000
     celldm(4)=   0.000000  celldm(5)=   0.000000  celldm(6)=   0.000000

     crystal axes: (cart. coord. in units of alat)
               a(1) = (   1.000000   0.000000   0.000000 )  
               a(2) = (   0.000000   0.203311   0.000000 )  
               a(3) = (   0.000000   0.000000   1.419211 )  

     reciprocal axes: (cart. coord. in units 2 pi/alat)
               b(1) = (  1.000000  0.000000  0.000000 )  
               b(2) = (  0.000000  4.918584  0.000000 )  
               b(3) = (  0.000000  0.000000  0.704617 )  


     PseudoPot. # 1 for Ta read from file:
     /ddn/data/physics/eamoujaes/PSEUDO-CREATED/Ta.upf
     MD5 check sum: d865b2c2c09566b116f2b8decb2c153d
     Pseudo is Projector augmented-wave + core cor, Zval = 13.0
     Generated using ATOMPAW code
     Shape of augmentation charge: SINC**2
     Using radial grid of 2342 points,  6 beta functions with: 
                l(1) =   0
                l(2) =   0
                l(3) =   1
                l(4) =   1
                l(5) =   2
                l(6) =   2
     Q(r) pseudized with 0 coefficients 


     PseudoPot. # 2 for Ni read from file:
     /ddn/data/physics/eamoujaes/PSEUDO-CREATED/Ni.upf
     MD5 check sum: 85a2a5d9d38f4289a1cc30d5adb66a03
     Pseudo is Projector augmented-wave + core cor, Zval = 18.0
     Generated using ATOMPAW code
     Shape of augmentation charge: SINC**2
     Using radial grid of 2342 points,  6 beta functions with: 
                l(1) =   0
                l(2) =   0
                l(3) =   1
                l(4) =   1
                l(5) =   2
                l(6) =   2
     Q(r) pseudized with 0 coefficients 


     PseudoPot. # 3 for Te read from file:
     /ddn/data/physics/eamoujaes/PSEUDO-CREATED/Te.upf
     MD5 check sum: 8d958f193a7511a138982c2e72838810
     Pseudo is Projector augmented-wave + core cor, Zval =  6.0
     Generated using ATOMPAW code
     Shape of augmentation charge: SINC**2
     Using radial grid of 2342 points,  4 beta functions with: 
                l(1) =   0
                l(2) =   0
                l(3) =   1
                l(4) =   1
     Q(r) pseudized with 0 coefficients 


     atomic species   valence    mass     pseudopotential
     Ta               13.00   180.94790     Ta( 1.00)
     Ni               18.00    58.69340     Ni( 1.00)
     Te                6.00   127.60000     Te( 1.00)

     No symmetry found



   Cartesian axes

     site n.     atom                  positions (alat units)
         1        Ta     tau(   1) = (   0.8725286   0.0518649   0.7054131  )
         2        Ta     tau(   2) = (   0.3725263   0.1555948   0.7138118  )
         3        Ta     tau(   3) = (   0.1284065   0.0518649   0.7054032  )
         4        Ta     tau(   4) = (   0.6284092   0.1555948   0.7138208  )
         5        Ni     tau(   5) = (   0.7292542   0.0518649   0.6667436  )
         6        Ni     tau(   6) = (   0.2292509   0.1555948   0.7524812  )
         7        Ni     tau(   7) = (   0.2716741   0.0518649   0.6667284  )
         8        Ni     tau(   8) = (   0.7716766   0.1555948   0.7524957  )
         9        Ni     tau(   9) = (   0.5004590   0.0518649   0.7011256  )
        10        Ni     tau(  10) = (   0.0004579   0.1555948   0.7180981  )
        11        Te     tau(  11) = (   0.8057052   0.1555948   0.5972198  )
        12        Te     tau(  12) = (   0.3057012   0.0518649   0.8220046  )
        13        Te     tau(  13) = (   0.6006311   0.0518649   0.5963172  )
        14        Te     tau(  14) = (   0.1006292   0.1555948   0.8229072  )
        15        Te     tau(  15) = (   0.1952149   0.1555948   0.5972072  )
        16        Te     tau(  16) = (   0.6952178   0.0518649   0.8220171  )
        17        Te     tau(  17) = (   0.4003072   0.0518649   0.5963080  )
        18        Te     tau(  18) = (   0.9003091   0.1555948   0.8229170  )
        19        Te     tau(  19) = (   0.0004704   0.0518649   0.6143601  )
        20        Te     tau(  20) = (   0.5004710   0.1555948   0.8048626  )

     number of k points=    12  Gaussian smearing, width (Ry)=  0.0020
                       cart. coord. in units 2pi/alat
        k(    1) = (   0.0000000   0.0000000   0.0000000), wk =   0.1000000
        k(    2) = (   0.0000000   0.4918584   0.0000000), wk =   0.2000000
        k(    3) = (   0.0000000   0.9837167   0.0000000), wk =   0.2000000
        k(    4) = (   0.0000000   1.4755751   0.0000000), wk =   0.2000000
        k(    5) = (   0.0000000   1.9674334   0.0000000), wk =   0.2000000
        k(    6) = (   0.0000000  -2.4592918   0.0000000), wk =   0.1000000
        k(    7) = (  -0.5000000   0.0000000   0.0000000), wk =   0.1000000
        k(    8) = (  -0.5000000   0.4918584   0.0000000), wk =   0.2000000
        k(    9) = (  -0.5000000   0.9837167   0.0000000), wk =   0.2000000
        k(   10) = (  -0.5000000   1.4755751   0.0000000), wk =   0.2000000
        k(   11) = (  -0.5000000   1.9674334   0.0000000), wk =   0.2000000
        k(   12) = (  -0.5000000  -2.4592918   0.0000000), wk =   0.1000000

     Dense  grid:  1898627 G-vectors     FFT dimensions: ( 240,  48, 360)

     Smooth grid:   671309 G-vectors     FFT dimensions: ( 180,  36, 240)

     Estimated max dynamical RAM per process >       9.70 GB

     Initial potential from superposition of free atoms

     starting charge     219.9927, renormalised to     220.0000

     negative rho (up, down):  5.087E-02 0.000E+00
     Starting wfcs are  260 randomized atomic wfcs
     Checking if some PAW data can be deallocated... 

     total cpu time spent up to now is       65.3 secs

     Self-consistent Calculation

     iteration #  1     ecut=    60.00 Ry     beta= 0.20
     Davidson diagonalization with overlap
     ethr =  1.00E-02,  avg # of iterations =  2.8

     negative rho (up, down):  5.140E-02 0.000E+00

     total cpu time spent up to now is      102.7 secs

     total energy              =   -9108.00381287 Ry
     estimated scf accuracy    <       7.60472493 Ry

     iteration #  2     ecut=    60.00 Ry     beta= 0.20
     Davidson diagonalization with overlap
     ethr =  3.46E-03,  avg # of iterations =  2.6

     negative rho (up, down):  5.286E-02 0.000E+00

     total cpu time spent up to now is      140.0 secs

     total energy              =   -9108.36403137 Ry
     estimated scf accuracy    <      11.79988636 Ry

     iteration #  3     ecut=    60.00 Ry     beta= 0.20
     Davidson diagonalization with overlap
     ethr =  3.46E-03,  avg # of iterations =  1.2

     negative rho (up, down):  5.376E-02 0.000E+00

     total cpu time spent up to now is      176.6 secs

     total energy              =   -9109.79669166 Ry
     estimated scf accuracy    <       2.82193948 Ry

     iteration #  4     ecut=    60.00 Ry     beta= 0.20
     Davidson diagonalization with overlap
     ethr =  1.28E-03,  avg # of iterations =  1.2

     negative rho (up, down):  5.498E-02 0.000E+00

     total cpu time spent up to now is      213.3 secs

     total energy              =   -9109.91541833 Ry
     estimated scf accuracy    <       0.77897598 Ry

     iteration #  5     ecut=    60.00 Ry     beta= 0.20
     Davidson diagonalization with overlap
     ethr =  3.54E-04,  avg # of iterations =  2.3

     negative rho (up, down):  5.732E-02 0.000E+00

     total cpu time spent up to now is      250.4 secs

     total energy              =   -9109.85534938 Ry
     estimated scf accuracy    <       0.45202784 Ry

     iteration #  6     ecut=    60.00 Ry     beta= 0.20
     Davidson diagonalization with overlap
     ethr =  2.05E-04,  avg # of iterations =  4.4

     negative rho (up, down):  6.156E-02 0.000E+00

     total cpu time spent up to now is      287.4 secs

     total energy              =   -9109.82982884 Ry
     estimated scf accuracy    <       0.34081805 Ry

     iteration #  7     ecut=    60.00 Ry     beta= 0.20
     Davidson diagonalization with overlap
     ethr =  1.55E-04,  avg # of iterations =  4.3

     negative rho (up, down):  6.216E-02 0.000E+00

     total cpu time spent up to now is      324.8 secs

     total energy              =   -9109.86443815 Ry
     estimated scf accuracy    <       0.45094688 Ry

     iteration #  8     ecut=    60.00 Ry     beta= 0.20
     Davidson diagonalization with overlap
     ethr =  1.55E-04,  avg # of iterations =  1.1

     negative rho (up, down):  6.229E-02 0.000E+00

     total cpu time spent up to now is      361.8 secs

     total energy              =   -9109.85792017 Ry
     estimated scf accuracy    <       0.13913824 Ry

     iteration #  9     ecut=    60.00 Ry     beta= 0.20
     Davidson diagonalization with overlap
     ethr =  6.32E-05,  avg # of iterations =  2.5

     negative rho (up, down):  6.264E-02 0.000E+00

     total cpu time spent up to now is      398.7 secs

     total energy              =   -9109.86233122 Ry
     estimated scf accuracy    <       0.03127247 Ry

     iteration # 10     ecut=    60.00 Ry     beta= 0.20
     Davidson diagonalization with overlap
     c_bands:  2 eigenvalues not converged
     ethr =  1.42E-05,  avg # of iterations =  9.0

     negative rho (up, down):  6.406E-02 0.000E+00

     total cpu time spent up to now is      436.7 secs

     total energy              =   -9109.86351879 Ry
     estimated scf accuracy    <       0.04013910 Ry

     iteration # 11     ecut=    60.00 Ry     beta= 0.20
     Davidson diagonalization with overlap
     ethr =  1.42E-05,  avg # of iterations =  1.1

     negative rho (up, down):  6.500E-02 0.000E+00

     total cpu time spent up to now is      473.5 secs

     total energy              =   -9109.86348971 Ry
     estimated scf accuracy    <       0.01122350 Ry

     iteration # 12     ecut=    60.00 Ry     beta= 0.20
     Davidson diagonalization with overlap
     ethr =  5.10E-06,  avg # of iterations =  4.9

     negative rho (up, down):  6.535E-02 0.000E+00

     total cpu time spent up to now is      511.1 secs

     total energy              =   -9109.86442028 Ry
     estimated scf accuracy    <       0.00226905 Ry

     iteration # 13     ecut=    60.00 Ry     beta= 0.20
     Davidson diagonalization with overlap
     c_bands:  2 eigenvalues not converged
     ethr =  1.03E-06,  avg # of iterations =  5.3

     negative rho (up, down):  6.566E-02 0.000E+00

     total cpu time spent up to now is      548.3 secs

     total energy              =   -9109.86466931 Ry
     estimated scf accuracy    <       0.00032537 Ry

     iteration # 14     ecut=    60.00 Ry     beta= 0.20
     Davidson diagonalization with overlap
     ethr =  1.48E-07,  avg # of iterations =  3.3

     negative rho (up, down):  6.582E-02 0.000E+00

     total cpu time spent up to now is      585.4 secs

     total energy              =   -9109.86469746 Ry
     estimated scf accuracy    <       0.00010058 Ry

     iteration # 15     ecut=    60.00 Ry     beta= 0.20
     Davidson diagonalization with overlap
     ethr =  4.57E-08,  avg # of iterations =  2.0

     negative rho (up, down):  6.588E-02 0.000E+00

     total cpu time spent up to now is      622.6 secs

     total energy              =   -9109.86470202 Ry
     estimated scf accuracy    <       0.00006261 Ry

     iteration # 16     ecut=    60.00 Ry     beta= 0.20
     Davidson diagonalization with overlap
     ethr =  2.85E-08,  avg # of iterations =  1.4

     negative rho (up, down):  6.592E-02 0.000E+00

     total cpu time spent up to now is      659.4 secs

     total energy              =   -9109.86470184 Ry
     estimated scf accuracy    <       0.00009425 Ry

     iteration # 17     ecut=    60.00 Ry     beta= 0.20
     Davidson diagonalization with overlap
     ethr =  2.85E-08,  avg # of iterations =  1.0

     negative rho (up, down):  6.597E-02 0.000E+00

     total cpu time spent up to now is      696.2 secs

     total energy              =   -9109.86470620 Ry
     estimated scf accuracy    <       0.00002814 Ry

     iteration # 18     ecut=    60.00 Ry     beta= 0.20
     Davidson diagonalization with overlap
     ethr =  1.28E-08,  avg # of iterations =  1.7

     negative rho (up, down):  6.593E-02 0.000E+00

     total cpu time spent up to now is      733.1 secs

     total energy              =   -9109.86470752 Ry
     estimated scf accuracy    <       0.00000705 Ry

     iteration # 19     ecut=    60.00 Ry     beta= 0.20
     Davidson diagonalization with overlap
     ethr =  3.20E-09,  avg # of iterations =  2.0

     negative rho (up, down):  6.589E-02 0.000E+00

     total cpu time spent up to now is      770.5 secs

     total energy              =   -9109.86470679 Ry
     estimated scf accuracy    <       0.00003327 Ry

     iteration # 20     ecut=    60.00 Ry     beta= 0.20
     Davidson diagonalization with overlap
     ethr =  3.20E-09,  avg # of iterations =  1.1

     negative rho (up, down):  6.588E-02 0.000E+00

     total cpu time spent up to now is      807.1 secs

     total energy              =   -9109.86470813 Ry
     estimated scf accuracy    <       0.00000213 Ry

     iteration # 21     ecut=    60.00 Ry     beta= 0.20
     Davidson diagonalization with overlap
     ethr =  9.67E-10,  avg # of iterations =  1.3

     negative rho (up, down):  6.587E-02 0.000E+00

     total cpu time spent up to now is      844.1 secs

     total energy              =   -9109.86470832 Ry
     estimated scf accuracy    <       0.00000072 Ry

     iteration # 22     ecut=    60.00 Ry     beta= 0.20
     Davidson diagonalization with overlap
     ethr =  3.26E-10,  avg # of iterations =  2.0

     negative rho (up, down):  6.584E-02 0.000E+00

     total cpu time spent up to now is      881.1 secs

     total energy              =   -9109.86470834 Ry
     estimated scf accuracy    <       0.00000065 Ry

     iteration # 23     ecut=    60.00 Ry     beta= 0.20
     Davidson diagonalization with overlap
     ethr =  2.95E-10,  avg # of iterations =  1.1

     negative rho (up, down):  6.581E-02 0.000E+00

     total cpu time spent up to now is      918.0 secs

     total energy              =   -9109.86470844 Ry
     estimated scf accuracy    <       0.00000021 Ry

     iteration # 24     ecut=    60.00 Ry     beta= 0.20
     Davidson diagonalization with overlap
     ethr =  9.64E-11,  avg # of iterations =  2.0

     negative rho (up, down):  6.579E-02 0.000E+00

     total cpu time spent up to now is      954.9 secs

     total energy              =   -9109.86470846 Ry
     estimated scf accuracy    <       0.00000015 Ry

     iteration # 25     ecut=    60.00 Ry     beta= 0.20
     Davidson diagonalization with overlap
     ethr =  6.88E-11,  avg # of iterations =  1.2

     negative rho (up, down):  6.579E-02 0.000E+00

     total cpu time spent up to now is      991.7 secs

     total energy              =   -9109.86470848 Ry
     estimated scf accuracy    <       0.00000002 Ry

     iteration # 26     ecut=    60.00 Ry     beta= 0.20
     Davidson diagonalization with overlap
     ethr =  8.44E-12,  avg # of iterations =  4.0

     negative rho (up, down):  6.576E-02 0.000E+00

     total cpu time spent up to now is     1029.5 secs

     End of self-consistent calculation

          k = 0.0000 0.0000 0.0000 ( 83995 PWs)   bands (ev):

  -103.3091-103.3091-103.2959-103.2958-102.9347-102.9347 -68.4959 -68.4958
   -68.4954 -68.4954 -63.8779 -63.8778 -63.8720 -63.8718 -63.7227 -63.7226
   -63.6588 -63.6587 -63.6113 -63.6111 -63.5624 -63.5623 -63.4282 -63.4277
   -63.4140 -63.4139 -63.2104 -63.2102 -35.0063 -35.0060 -35.0051 -35.0046
   -34.9615 -34.9573 -34.9572 -34.9529 -34.9253 -34.9252 -34.9250 -34.9249
   -12.9993 -12.7145 -12.5877 -12.1223 -12.1096 -11.8735 -11.8141 -11.8072
   -11.6934 -11.4717  -6.1980  -5.9477  -5.7686  -5.7044  -5.4709  -5.4356
    -5.4316  -4.8060  -4.6679  -4.2369  -4.1750  -3.8446  -3.7860  -3.7787
    -3.6482  -3.6101  -3.6022  -3.5712  -3.1693  -3.1580  -3.0724  -2.9156
    -2.6998  -2.6844  -2.6659  -2.6161  -2.5479  -2.3064  -2.2992  -2.2661
    -2.2420  -2.1446  -2.0870  -1.9100  -1.8837  -1.8632  -1.8618  -1.8085
    -1.7933  -1.6786  -1.5544  -1.5302  -1.2903  -1.2824  -1.2074  -1.1560
    -1.1092  -1.0294  -0.8768  -0.8715  -0.8214  -0.8105  -0.7559  -0.5486
    -0.5315  -0.4759  -0.3950  -0.3272  -0.0316   0.1159   0.1338   0.2627
     0.8761   1.0910   1.2080   1.3150   1.3582   1.4579   1.5673   1.6147
     1.9474   2.1073   2.2186   2.4396   2.6305   2.7303   3.2329   3.4960
     3.5551   3.6016   3.6463   3.8214

          k = 0.0000 0.4919 0.0000 ( 83969 PWs)   bands (ev):

  -103.3088-103.3088-103.2962-103.2961-102.9347-102.9347 -68.4957 -68.4956
   -68.4952 -68.4952 -63.8778 -63.8777 -63.8721 -63.8720 -63.7219 -63.7219
   -63.6624 -63.6623 -63.6081 -63.6080 -63.5628 -63.5627 -63.4281 -63.4278
   -63.4139 -63.4139 -63.2105 -63.2104 -35.0052 -35.0049 -35.0040 -35.0035
   -34.9604 -34.9564 -34.9563 -34.9521 -34.9341 -34.9340 -34.9337 -34.9337
   -12.8975 -12.6152 -12.4964 -12.0671 -12.0324 -11.8176 -11.7586 -11.7422
   -11.6295 -11.4293  -6.1044  -5.8580  -5.6664  -5.5953  -5.3935  -5.3480
    -5.3238  -4.7199  -4.5969  -4.1939  -4.1520  -3.9547  -3.8574  -3.8359
    -3.7351  -3.6862  -3.6198  -3.5759  -3.1946  -3.1939  -3.0865  -2.9036
    -2.8063  -2.8009  -2.7376  -2.7115  -2.6942  -2.6424  -2.3942  -2.2217
    -2.1989  -2.1510  -2.1054  -2.0833  -2.0421  -1.9017  -1.8528  -1.8232
    -1.7941  -1.7478  -1.6179  -1.5365  -1.5231  -1.4037  -1.3428  -1.2950
    -1.2120  -1.2017  -1.0713  -0.9301  -0.8790  -0.8675  -0.8457  -0.6155
    -0.5512  -0.5187  -0.4396  -0.3355  -0.0090   0.0143   0.2373   0.4476
     0.7962   0.9822   1.1227   1.2249   1.3028   1.3959   1.4972   1.6799
     1.8832   2.0210   2.1444   2.2704   2.4509   2.7199   2.8584   3.0281
     3.0978   3.2291   3.5158   3.6770

          k = 0.0000 0.9837 0.0000 ( 83891 PWs)   bands (ev):

  -103.3079-103.3078-103.2971-103.2970-102.9347-102.9347 -68.4951 -68.4950
   -68.4947 -68.4947 -63.8775 -63.8774 -63.8727 -63.8725 -63.7192 -63.7192
   -63.6710 -63.6708 -63.6007 -63.6006 -63.5642 -63.5642 -63.4280 -63.4279
   -63.4139 -63.4139 -63.2106 -63.2105 -35.0024 -35.0022 -35.0011 -35.0008
   -34.9586 -34.9576 -34.9570 -34.9567 -34.9559 -34.9534 -34.9527 -34.9499
   -12.6050 -12.3320 -12.2378 -11.9124 -11.8264 -11.6836 -11.5878 -11.5530
   -11.4571 -11.3152  -5.8719  -5.6249  -5.4057  -5.3530  -5.1949  -5.0872
    -5.0543  -4.5960  -4.5363  -4.2967  -4.1585  -4.1131  -4.0087  -4.0084
    -3.9504  -3.8996  -3.8050  -3.6276  -3.5060  -3.3979  -3.2118  -3.1938
    -3.1808  -3.0194  -3.0105  -2.8490  -2.7466  -2.6815  -2.5943  -2.5205
    -2.4307  -2.3902  -2.3314  -2.2671  -2.1947  -2.1188  -2.0288  -2.0205
    -1.9549  -1.8293  -1.7383  -1.7188  -1.6645  -1.4979  -1.4718  -1.4712
    -1.3480  -1.2568  -1.2013  -1.0346  -0.9662  -0.9022  -0.8949  -0.8652
    -0.8341  -0.7091  -0.4941  -0.3636  -0.2623  -0.2425   0.5743   0.7838
     0.7923   1.0455   1.0652   1.1366   1.2188   1.3163   1.3710   1.5803
     1.8564   1.9075   1.9691   2.2033   2.3602   2.4940   2.6427   2.6624
     2.8320   2.9732   3.9048   4.0363

          k = 0.0000 1.4756 0.0000 ( 83831 PWs)   bands (ev):

  -103.3065-103.3064-103.2985-103.2984-102.9347-102.9347 -68.4943 -68.4943
   -68.4940 -68.4940 -63.8770 -63.8769 -63.8735 -63.8732 -63.7148 -63.7147
   -63.6812 -63.6811 -63.5925 -63.5924 -63.5668 -63.5668 -63.4280 -63.4279
   -63.4140 -63.4139 -63.2108 -63.2107 -34.9995 -34.9994 -34.9983 -34.9981
   -34.9849 -34.9847 -34.9844 -34.9840 -34.9531 -34.9508 -34.9498 -34.9475
   -12.1659 -11.9154 -11.8692 -11.6881 -11.5655 -11.5254 -11.3441 -11.2705
   -11.2431 -11.1676  -5.7407  -5.4895  -5.3973  -5.3368  -5.0683  -5.0217
    -4.8661  -4.8583  -4.7166  -4.5713  -4.4049  -4.3229  -4.2533  -4.1061
    -4.0198  -3.9941  -3.8417  -3.7697  -3.7351  -3.5321  -3.4629  -3.4374
    -3.3477  -3.1245  -3.0259  -3.0244  -2.9825  -2.8699  -2.7020  -2.6827
    -2.6465  -2.6096  -2.5098  -2.3659  -2.2759  -2.1700  -2.1429  -2.0796
    -2.0676  -1.9840  -1.9550  -1.8002  -1.7373  -1.5927  -1.5378  -1.4749
    -1.3728  -1.3562  -1.3224  -1.3113  -1.0915  -1.0718  -1.0672  -1.0355
    -0.8183  -0.7479  -0.7359  -0.5217  -0.5053  -0.4366   0.6309   0.7619
     0.8936   1.0351   1.1243   1.2790   1.4290   1.4674   1.5700   1.6092
     1.8995   1.9480   1.9591   2.2971   2.3507   2.5800   2.7484   2.7721
     3.0641   3.1236   3.7464   3.8517

          k = 0.0000 1.9674 0.0000 ( 83842 PWs)   bands (ev):

  -103.3047-103.3047-103.3002-103.3002-102.9347-102.9347 -68.4937 -68.4936
   -68.4935 -68.4935 -63.8765 -63.8763 -63.8742 -63.8742 -63.7091 -63.7089
   -63.6912 -63.6912 -63.5850 -63.5849 -63.5704 -63.5703 -63.4280 -63.4280
   -63.4140 -63.4139 -63.2110 -63.2109 -35.0097 -35.0096 -35.0090 -35.0088
   -34.9948 -34.9947 -34.9933 -34.9932 -34.9497 -34.9485 -34.9469 -34.9456
   -11.6748 -11.5506 -11.4830 -11.4025 -11.4017 -11.3418 -11.1455 -11.1201
   -11.0376 -11.0105  -6.0207  -6.0084  -5.9620  -5.9046  -5.2915  -5.2514
    -5.0370  -4.9770  -4.7995  -4.6683  -4.3557  -4.3057  -4.2169  -3.9415
    -3.9209  -3.7942  -3.7094  -3.6766  -3.5636  -3.5564  -3.4321  -3.4109
    -3.3326  -3.3044  -3.2303  -3.2005  -2.9972  -2.9530  -2.8249  -2.8132
    -2.6356  -2.5803  -2.5559  -2.4136  -2.2173  -2.2108  -2.1553  -2.1374
    -2.1077  -2.0659  -2.0473  -1.8565  -1.8453  -1.7567  -1.6612  -1.6166
    -1.4254  -1.3941  -1.3723  -1.3471  -1.2885  -1.2011  -1.1431  -1.0974
    -0.9323  -0.8713  -0.8144  -0.6968  -0.6617  -0.6394   0.4702   0.5639
     1.0677   1.1307   1.1754   1.2664   1.4508   1.7984   1.8453   1.9934
     2.0738   2.1071   2.2340   2.3214   2.4124   2.6038   2.9690   2.9759
     3.1712   3.3851   3.4871   3.5167

          k = 0.0000-2.4593 0.0000 ( 83812 PWs)   bands (ev):

  -103.3034-103.3034-103.3015-103.3014-102.9347-102.9347 -68.4935 -68.4934
   -68.4933 -68.4933 -63.8761 -63.8759 -63.8747 -63.8746 -63.7035 -63.7033
   -63.6984 -63.6983 -63.5808 -63.5807 -63.5731 -63.5730 -63.4280 -63.4280
   -63.4139 -63.4139 -63.2111 -63.2111 -35.0180 -35.0179 -35.0172 -35.0171
   -34.9941 -34.9940 -34.9926 -34.9925 -34.9481 -34.9479 -34.9454 -34.9452
   -11.4225 -11.4167 -11.2810 -11.2678 -11.2589 -11.2420 -11.1483 -11.1304
   -10.9522 -10.9436  -6.2470  -6.2326  -6.2248  -6.2138  -5.5126  -5.4810
    -5.0554  -5.0533  -4.8513  -4.8481  -4.1122  -4.1021  -3.9968  -3.9743
    -3.8610  -3.8394  -3.5402  -3.4950  -3.4922  -3.4910  -3.4385  -3.4277
    -3.4171  -3.4110  -3.1830  -3.1483  -3.0200  -3.0085  -2.9533  -2.9237
    -2.5675  -2.5563  -2.4511  -2.3991  -2.2567  -2.2137  -2.1773  -2.1275
    -2.1256  -2.1054  -1.9052  -1.8719  -1.8603  -1.8507  -1.8260  -1.7754
    -1.4294  -1.4080  -1.3055  -1.3038  -1.2883  -1.2748  -1.1748  -1.1544
    -1.0607  -1.0588  -0.8715  -0.8605  -0.6704  -0.6312   0.4622   0.4880
     1.1656   1.1776   1.1856   1.2011   1.4781   1.5560   1.9264   1.9435
     2.3672   2.3790   2.3997   2.4164   2.6251   2.6312   2.9101   2.9273
     3.1440   3.1868   3.4390   3.5416

          k =-0.5000 0.0000 0.0000 ( 84046 PWs)   bands (ev):

  -103.3091-103.3091-103.2959-103.2958-102.9347-102.9347 -68.4959 -68.4958
   -68.4954 -68.4954 -63.8779 -63.8778 -63.8720 -63.8719 -63.7228 -63.7227
   -63.6588 -63.6587 -63.6113 -63.6113 -63.5624 -63.5623 -63.4280 -63.4280
   -63.4140 -63.4140 -63.2104 -63.2104 -35.0062 -35.0061 -35.0048 -35.0048
   -34.9603 -34.9603 -34.9542 -34.9541 -34.9253 -34.9252 -34.9249 -34.9249
   -12.9108 -12.9108 -12.3021 -12.3020 -12.0568 -12.0568 -11.7682 -11.7681
   -11.5586 -11.5586  -6.1079  -6.1079  -5.7711  -5.7710  -5.4228  -5.4228
    -5.0617  -5.0617  -4.6011  -4.6011  -3.9006  -3.9006  -3.7329  -3.7329
    -3.5884  -3.5884  -3.5310  -3.5310  -3.2097  -3.2096  -3.1559  -3.1559
    -2.6937  -2.6937  -2.6382  -2.6381  -2.4490  -2.4490  -2.2656  -2.2656
    -2.1047  -2.1047  -1.9574  -1.9574  -1.9079  -1.9079  -1.8347  -1.8347
    -1.7066  -1.7066  -1.6213  -1.6213  -1.2834  -1.2834  -1.1306  -1.1306
    -1.0035  -1.0035  -0.9468  -0.9468  -0.8376  -0.8376  -0.6081  -0.6080
    -0.5307  -0.5307  -0.3529  -0.3529   0.0890   0.0890   0.1443   0.1443
     1.0734   1.0734   1.2284   1.2284   1.4128   1.4128   1.4373   1.4373
     2.0218   2.0219   2.4928   2.4928   2.5453   2.5454   3.3881   3.3881
     3.5481   3.5481   3.6671   3.6672

          k =-0.5000 0.4919 0.0000 ( 83986 PWs)   bands (ev):

  -103.3088-103.3088-103.2962-103.2961-102.9347-102.9347 -68.4957 -68.4956
   -68.4952 -68.4952 -63.8778 -63.8777 -63.8722 -63.8721 -63.7218 -63.7218
   -63.6623 -63.6623 -63.6081 -63.6081 -63.5628 -63.5627 -63.4280 -63.4280
   -63.4140 -63.4139 -63.2104 -63.2104 -35.0051 -35.0051 -35.0038 -35.0037
   -34.9592 -34.9592 -34.9534 -34.9533 -34.9341 -34.9340 -34.9337 -34.9337
   -12.8103 -12.8103 -12.2144 -12.2144 -12.0031 -12.0031 -11.7053 -11.7052
   -11.5097 -11.5097  -6.0137  -6.0137  -5.6683  -5.6683  -5.3281  -5.3280
    -4.9801  -4.9801  -4.5441  -4.5441  -3.9761  -3.9761  -3.8001  -3.8000
    -3.6070  -3.6070  -3.5145  -3.5144  -3.3729  -3.3729  -3.0495  -3.0495
    -2.8231  -2.8231  -2.7180  -2.7179  -2.6658  -2.6657  -2.2785  -2.2785
    -2.1470  -2.1470  -2.0815  -2.0815  -1.9504  -1.9504  -1.8619  -1.8619
    -1.7428  -1.7428  -1.6830  -1.6830  -1.4056  -1.4056  -1.3396  -1.3396
    -1.1647  -1.1647  -0.9898  -0.9898  -0.8814  -0.8814  -0.7194  -0.7194
    -0.5467  -0.5466  -0.4059  -0.4059   0.0280   0.0280   0.3376   0.3376
     0.9088   0.9088   1.2478   1.2479   1.3414   1.3414   1.4663   1.4663
     1.8964   1.8964   2.2773   2.2773   2.4968   2.4968   2.9886   2.9886
     3.1474   3.1474   3.6572   3.6573

          k =-0.5000 0.9837 0.0000 ( 83958 PWs)   bands (ev):

  -103.3079-103.3078-103.2971-103.2970-102.9347-102.9347 -68.4951 -68.4950
   -68.4947 -68.4947 -63.8775 -63.8775 -63.8727 -63.8727 -63.7193 -63.7193
   -63.6710 -63.6709 -63.6007 -63.6007 -63.5642 -63.5642 -63.4281 -63.4281
   -63.4139 -63.4139 -63.2106 -63.2106 -35.0024 -35.0023 -35.0010 -35.0009
   -34.9582 -34.9581 -34.9569 -34.9569 -34.9551 -34.9550 -34.9509 -34.9508
   -12.5223 -12.5223 -11.9690 -11.9690 -11.8542 -11.8542 -11.5368 -11.5368
   -11.3727 -11.3727  -5.7740  -5.7740  -5.4034  -5.4034  -5.0880  -5.0879
    -4.8495  -4.8495  -4.4504  -4.4504  -4.1779  -4.1779  -4.0520  -4.0520
    -3.7014  -3.7014  -3.5891  -3.5891  -3.5774  -3.5774  -3.2718  -3.2718
    -3.1572  -3.1572  -2.9210  -2.9210  -2.7105  -2.7104  -2.5641  -2.5641
    -2.3939  -2.3939  -2.3396  -2.3396  -2.1175  -2.1174  -2.0207  -2.0207
    -1.8993  -1.8993  -1.7631  -1.7631  -1.5294  -1.5294  -1.4501  -1.4501
    -1.2498  -1.2498  -1.2075  -1.2075  -0.9703  -0.9703  -0.8757  -0.8757
    -0.7737  -0.7737  -0.3709  -0.3709  -0.2337  -0.2337   0.6361   0.6361
     0.9307   0.9307   1.1521   1.1521   1.3318   1.3318   1.4894   1.4894
     1.6806   1.6806   2.0989   2.0989   2.4375   2.4375   2.6991   2.6992
     2.8569   2.8569   3.9903   3.9908

          k =-0.5000 1.4756 0.0000 ( 83894 PWs)   bands (ev):

  -103.3065-103.3064-103.2985-103.2984-102.9347-102.9347 -68.4943 -68.4943
   -68.4940 -68.4940 -63.8771 -63.8770 -63.8734 -63.8733 -63.7149 -63.7148
   -63.6813 -63.6812 -63.5925 -63.5924 -63.5668 -63.5668 -63.4280 -63.4280
   -63.4139 -63.4139 -63.2108 -63.2108 -34.9995 -34.9995 -34.9982 -34.9981
   -34.9849 -34.9848 -34.9842 -34.9841 -34.9523 -34.9523 -34.9483 -34.9482
   -12.0931 -12.0931 -11.6498 -11.6498 -11.6284 -11.6284 -11.3256 -11.3255
   -11.1804 -11.1804  -5.6385  -5.6385  -5.2818  -5.2817  -5.1450  -5.1450
    -4.9047  -4.9047  -4.5768  -4.5768  -4.4044  -4.4044  -4.0803  -4.0803
    -3.9800  -3.9800  -3.8676  -3.8675  -3.6299  -3.6299  -3.4832  -3.4831
    -3.1362  -3.1362  -3.0741  -3.0741  -2.9283  -2.9283  -2.7914  -2.7914
    -2.5637  -2.5637  -2.4680  -2.4680  -2.2098  -2.2098  -2.1128  -2.1128
    -2.0318  -2.0318  -1.9144  -1.9144  -1.5852  -1.5852  -1.5113  -1.5113
    -1.3602  -1.3601  -1.3167  -1.3167  -1.1481  -1.1481  -0.9915  -0.9914
    -0.8461  -0.8461  -0.5958  -0.5958  -0.4578  -0.4578   0.6567   0.6568
     1.1228   1.1228   1.2302   1.2302   1.4171   1.4171   1.5315   1.5315
     1.8361   1.8362   2.0800   2.0800   2.5449   2.5449   2.8127   2.8127
     2.9835   2.9836   3.8858   3.8862

          k =-0.5000 1.9674 0.0000 ( 83748 PWs)   bands (ev):

  -103.3047-103.3047-103.3002-103.3002-102.9347-102.9347 -68.4937 -68.4936
   -68.4935 -68.4935 -63.8764 -63.8763 -63.8741 -63.8740 -63.7090 -63.7089
   -63.6912 -63.6911 -63.5849 -63.5848 -63.5703 -63.5703 -63.4279 -63.4279
   -63.4139 -63.4139 -63.2109 -63.2109 -35.0097 -35.0096 -35.0089 -35.0088
   -34.9947 -34.9947 -34.9933 -34.9933 -34.9493 -34.9492 -34.9461 -34.9461
   -11.6277 -11.6276 -11.4537 -11.4537 -11.3325 -11.3324 -11.1547 -11.1546
   -11.0157 -11.0157  -6.0693  -6.0693  -5.8495  -5.8495  -5.3154  -5.3154
    -5.0123  -5.0123  -4.7200  -4.7200  -4.3480  -4.3480  -4.0744  -4.0744
    -3.8783  -3.8782  -3.7210  -3.7210  -3.5213  -3.5213  -3.4105  -3.4105
    -3.2796  -3.2796  -3.1454  -3.1453  -3.0258  -3.0257  -2.8319  -2.8319
    -2.6405  -2.6405  -2.4441  -2.4441  -2.2752  -2.2752  -2.1663  -2.1663
    -2.0840  -2.0840  -1.9857  -1.9857  -1.6752  -1.6752  -1.6619  -1.6619
    -1.4422  -1.4422  -1.3617  -1.3617  -1.2619  -1.2618  -1.0494  -1.0494
    -0.9914  -0.9914  -0.7340  -0.7340  -0.6437  -0.6437   0.5158   0.5158
     1.1419   1.1420   1.3188   1.3189   1.5015   1.5015   1.9374   1.9374
     2.0899   2.0899   2.2341   2.2341   2.4778   2.4778   3.0153   3.0154
     3.2002   3.2002   3.5288   3.5288

          k =-0.5000-2.4593 0.0000 ( 83820 PWs)   bands (ev):

  -103.3034-103.3034-103.3015-103.3014-102.9347-102.9347 -68.4935 -68.4934
   -68.4933 -68.4933 -63.8761 -63.8760 -63.8747 -63.8746 -63.7035 -63.7034
   -63.6984 -63.6984 -63.5807 -63.5807 -63.5731 -63.5730 -63.4280 -63.4280
   -63.4139 -63.4139 -63.2111 -63.2111 -35.0180 -35.0179 -35.0172 -35.0171
   -34.9940 -34.9940 -34.9926 -34.9925 -34.9481 -34.9480 -34.9453 -34.9453
   -11.4197 -11.4197 -11.2770 -11.2770 -11.2459 -11.2459 -11.1429 -11.1429
   -10.9462 -10.9462  -6.3321  -6.3321  -6.1041  -6.1041  -5.5156  -5.5156
    -5.0464  -5.0464  -4.8713  -4.8713  -4.0746  -4.0745  -4.0476  -4.0476
    -3.7718  -3.7718  -3.6152  -3.6152  -3.4981  -3.4981  -3.4503  -3.4503
    -3.4003  -3.4003  -3.1576  -3.1576  -2.9118  -2.9118  -2.8687  -2.8687
    -2.6316  -2.6316  -2.4359  -2.4358  -2.2572  -2.2572  -2.2128  -2.2128
    -2.0975  -2.0975  -1.8878  -1.8878  -1.8700  -1.8700  -1.7162  -1.7162
    -1.4655  -1.4655  -1.3250  -1.3250  -1.2731  -1.2731  -1.1404  -1.1404
    -1.0833  -1.0833  -0.8644  -0.8644  -0.6433  -0.6433   0.4807   0.4807
     1.1885   1.1885   1.2910   1.2910   1.3933   1.3933   2.0590   2.0591
     2.1779   2.1779   2.4689   2.4689   2.6226   2.6226   2.9425   2.9426
     3.0585   3.0585   3.6992   3.6997

     the Fermi energy is     0.1212 ev

!    total energy              =   -9109.86470848 Ry
     total all-electron energy =     -9109.864708 Ry
     estimated scf accuracy    <          9.3E-09 Ry
     smearing contrib. (-TS)   =      -0.00018259 Ry
     internal energy E=F+TS    =   -9109.86452589 Ry

     The total energy is F=E-TS. E is the sum of the following terms:
     one-electron contribution =  -16686.86980997 Ry
     hartree contribution      =    8202.76735626 Ry
     xc contribution           =    -365.24998343 Ry
     ewald contribution        =    6007.23000074 Ry
     one-center paw contrib.   =   -6267.74208949 Ry

     convergence has been achieved in  26 iterations

     negative rho (up, down):  6.576E-02 0.000E+00

     Forces acting on atoms (cartesian axes, Ry/au):

     atom    1 type  1   force =     0.00374184    0.01115528   -0.00587047
     atom    2 type  1   force =     0.00366833   -0.01116857    0.00585349
     atom    3 type  1   force =    -0.00374755    0.01115749   -0.00583769
     atom    4 type  1   force =    -0.00371110   -0.01116923    0.00584173
     atom    5 type  2   force =    -0.00295357    0.01518825   -0.00425596
     atom    6 type  2   force =    -0.00303696   -0.01516165    0.00421480
     atom    7 type  2   force =     0.00306229    0.01517838   -0.00426906
     atom    8 type  2   force =     0.00314881   -0.01514800    0.00423537
     atom    9 type  2   force =    -0.00000287    0.00656750   -0.00534541
     atom   10 type  2   force =    -0.00000091   -0.00655685    0.00537902
     atom   11 type  3   force =     0.00201573   -0.00936286   -0.01138955
     atom   12 type  3   force =     0.00202739    0.00935668    0.01139872
     atom   13 type  3   force =    -0.00140017    0.00548203   -0.00996566
     atom   14 type  3   force =    -0.00139528   -0.00549120    0.00997456
     atom   15 type  3   force =    -0.00199692   -0.00936344   -0.01139322
     atom   16 type  3   force =    -0.00200193    0.00935542    0.01140249
     atom   17 type  3   force =     0.00134761    0.00548031   -0.00996401
     atom   18 type  3   force =     0.00133972   -0.00548957    0.00997998
     atom   19 type  3   force =    -0.00005015    0.00679530   -0.00844876
     atom   20 type  3   force =    -0.00005432   -0.00680526    0.00845963

     Total force =     0.059254     Total SCF correction =     0.000385


     Computing stress (Cartesian axis) and pressure


     negative rho (up, down):  6.576E-02 0.000E+00
          total   stress  (Ry/bohr**3)                   (kbar)     P=        4.38
   0.00002600   0.00000000   0.00000000            3.83        0.00        0.00
   0.00000000   0.00006475  -0.00000763            0.00        9.53       -1.12
   0.00000000  -0.00000763  -0.00000144            0.00       -1.12       -0.21


     BFGS Geometry Optimization
     Energy error            =      0.0E+00 Ry
     Gradient error          =      1.5E-02 Ry/Bohr

     number of scf cycles    =   1
     number of bfgs steps    =   0

     energy             new  =   -9109.8647084775 Ry

     new trust radius        =       0.0160619351 bohr
     new conv_thr            =       0.0000000100 Ry


ATOMIC_POSITIONS (angstrom)
Ta              15.3938209216        0.9208266823       12.4407337122
Ta               6.5734917077        2.7388595265       12.5950938681
Ta               2.2631724966        0.9208278531       12.4405767909
Ta              11.0834895157        2.7388591775       12.5952477992
Ni              12.8628451972        0.9229608419       11.7594374397
Ni               4.0424930359        2.7367464820       13.2763743253
Ni               4.7940872186        0.9229556170       11.7591638661
Ni              13.6144268902        2.7367537060       13.2766422707
Ni               8.8283451457        0.9183989340       12.3653769289
Ni               0.0080764228        2.7412999467       12.6704562679
Te              14.2141090519        2.7398150664       10.5292296596
Te               5.3937947056        0.9198749062       14.5066040492
Te              10.5946921799        0.9178245288       10.5140602763
Te               1.7744117354        2.7418638609       14.5217732658
Te               3.4426319701        2.7398147638       10.5290045078
Te              12.2629301630        0.9198742394       14.5068264880
Te               7.0623315486        0.9178236212       10.5138985421
Te              15.8826108553        2.7418647257       14.5219483048
Te               0.0082723857        0.9185194811       10.8331481754
Te               8.8285292158        2.7411684933       14.2026544617



     Writing config-only to output data dir /ddn/data/physics/eamoujaes/2D-Ta2Ni3Te5/ELASTIC/C22/OUT/ta2ni3te5.save/ :
     XML data file
     NEW-OLD atomic charge density approx. for the potential

     negative rho (up, down):  6.542E-02 0.000E+00

     total cpu time spent up to now is     1124.1 secs

     Self-consistent Calculation

     iteration #  1     ecut=    60.00 Ry     beta= 0.20
     Davidson diagonalization with overlap
     c_bands:  1 eigenvalues not converged
     ethr =  1.00E-06,  avg # of iterations =  7.8

     negative rho (up, down):  6.546E-02 0.000E+00

     total cpu time spent up to now is     1163.7 secs

     total energy              =   -9109.86734792 Ry
     estimated scf accuracy    <       0.00103999 Ry

     iteration #  2     ecut=    60.00 Ry     beta= 0.20
     Davidson diagonalization with overlap
     ethr =  4.73E-07,  avg # of iterations =  3.4

     negative rho (up, down):  6.548E-02 0.000E+00

     total cpu time spent up to now is     1201.0 secs

     total energy              =   -9109.86746094 Ry
     estimated scf accuracy    <       0.00380827 Ry

     iteration #  3     ecut=    60.00 Ry     beta= 0.20
     Davidson diagonalization with overlap
     ethr =  4.73E-07,  avg # of iterations =  2.0

     negative rho (up, down):  6.549E-02 0.000E+00

     total cpu time spent up to now is     1238.1 secs

     total energy              =   -9109.86764410 Ry
     estimated scf accuracy    <       0.00034919 Ry

     iteration #  4     ecut=    60.00 Ry     beta= 0.20
     Davidson diagonalization with overlap
     ethr =  1.59E-07,  avg # of iterations =  1.9

     negative rho (up, down):  6.553E-02 0.000E+00

     total cpu time spent up to now is     1274.8 secs

     total energy              =   -9109.86764359 Ry
     estimated scf accuracy    <       0.00019771 Ry

     iteration #  5     ecut=    60.00 Ry     beta= 0.20
     Davidson diagonalization with overlap
     ethr =  8.99E-08,  avg # of iterations =  2.0

     negative rho (up, down):  6.556E-02 0.000E+00

     total cpu time spent up to now is     1311.9 secs

     total energy              =   -9109.86762896 Ry
     estimated scf accuracy    <       0.00075087 Ry

     iteration #  6     ecut=    60.00 Ry     beta= 0.20
     Davidson diagonalization with overlap
     ethr =  8.99E-08,  avg # of iterations =  1.0

     negative rho (up, down):  6.557E-02 0.000E+00

     total cpu time spent up to now is     1348.6 secs

     total energy              =   -9109.86765642 Ry
     estimated scf accuracy    <       0.00002399 Ry

     iteration #  7     ecut=    60.00 Ry     beta= 0.20
     Davidson diagonalization with overlap
     ethr =  1.09E-08,  avg # of iterations =  2.0

     negative rho (up, down):  6.559E-02 0.000E+00

     total cpu time spent up to now is     1385.9 secs

     total energy              =   -9109.86765853 Ry
     estimated scf accuracy    <       0.00010340 Ry

     iteration #  8     ecut=    60.00 Ry     beta= 0.20
     Davidson diagonalization with overlap
     ethr =  1.09E-08,  avg # of iterations =  1.0

     negative rho (up, down):  6.561E-02 0.000E+00

     total cpu time spent up to now is     1422.6 secs

     total energy              =   -9109.86766301 Ry
     estimated scf accuracy    <       0.00000693 Ry

     iteration #  9     ecut=    60.00 Ry     beta= 0.20
     Davidson diagonalization with overlap
     ethr =  3.15E-09,  avg # of iterations =  1.4

     negative rho (up, down):  6.563E-02 0.000E+00

     total cpu time spent up to now is     1460.0 secs

     total energy              =   -9109.86766479 Ry
     estimated scf accuracy    <       0.00000179 Ry

     iteration # 10     ecut=    60.00 Ry     beta= 0.20
     Davidson diagonalization with overlap
     ethr =  8.13E-10,  avg # of iterations =  2.2

     negative rho (up, down):  6.564E-02 0.000E+00

     total cpu time spent up to now is     1497.2 secs

     total energy              =   -9109.86766573 Ry
     estimated scf accuracy    <       0.00000128 Ry

     iteration # 11     ecut=    60.00 Ry     beta= 0.20
     Davidson diagonalization with overlap
     ethr =  5.82E-10,  avg # of iterations =  2.0

     negative rho (up, down):  6.564E-02 0.000E+00

     total cpu time spent up to now is     1534.2 secs

     total energy              =   -9109.86766609 Ry
     estimated scf accuracy    <       0.00000035 Ry

     iteration # 12     ecut=    60.00 Ry     beta= 0.20
     Davidson diagonalization with overlap
     ethr =  1.61E-10,  avg # of iterations =  2.3

     negative rho (up, down):  6.564E-02 0.000E+00

     total cpu time spent up to now is     1571.7 secs

     total energy              =   -9109.86766624 Ry
     estimated scf accuracy    <       0.00000015 Ry

     iteration # 13     ecut=    60.00 Ry     beta= 0.20
     Davidson diagonalization with overlap
     ethr =  6.61E-11,  avg # of iterations =  2.4

     negative rho (up, down):  6.565E-02 0.000E+00

     total cpu time spent up to now is     1608.7 secs

     total energy              =   -9109.86766633 Ry
     estimated scf accuracy    <       0.00000007 Ry

     iteration # 14     ecut=    60.00 Ry     beta= 0.20
     Davidson diagonalization with overlap
     ethr =  3.14E-11,  avg # of iterations =  2.3

     negative rho (up, down):  6.565E-02 0.000E+00

     total cpu time spent up to now is     1646.1 secs

     total energy              =   -9109.86766635 Ry
     estimated scf accuracy    <       0.00000002 Ry

     iteration # 15     ecut=    60.00 Ry     beta= 0.20
     Davidson diagonalization with overlap
     ethr =  7.58E-12,  avg # of iterations =  4.8

     negative rho (up, down):  6.565E-02 0.000E+00

     total cpu time spent up to now is     1683.6 secs

     total energy              =   -9109.86766635 Ry
     estimated scf accuracy    <       0.00000002 Ry

     iteration # 16     ecut=    60.00 Ry     beta= 0.20
     Davidson diagonalization with overlap
     ethr =  7.58E-12,  avg # of iterations =  1.0

     negative rho (up, down):  6.565E-02 0.000E+00

     total cpu time spent up to now is     1720.4 secs

     total energy              =   -9109.86766635 Ry
     estimated scf accuracy    <       0.00000001 Ry

     iteration # 17     ecut=    60.00 Ry     beta= 0.20
     Davidson diagonalization with overlap
     ethr =  6.34E-12,  avg # of iterations =  1.0

     negative rho (up, down):  6.565E-02 0.000E+00

     total cpu time spent up to now is     1757.2 secs

     total energy              =   -9109.86766635 Ry
     estimated scf accuracy    <       0.00000001 Ry

     iteration # 18     ecut=    60.00 Ry     beta= 0.20
     Davidson diagonalization with overlap
     ethr =  4.71E-12,  avg # of iterations =  1.0

     negative rho (up, down):  6.565E-02 0.000E+00

     total cpu time spent up to now is     1793.9 secs

     total energy              =   -9109.86766635 Ry
     estimated scf accuracy    <       0.00000002 Ry

     iteration # 19     ecut=    60.00 Ry     beta= 0.20
     Davidson diagonalization with overlap
     ethr =  4.71E-12,  avg # of iterations =  1.0

     negative rho (up, down):  6.565E-02 0.000E+00

     total cpu time spent up to now is     1830.7 secs

     End of self-consistent calculation

          k = 0.0000 0.0000 0.0000 ( 83995 PWs)   bands (ev):

  -103.3008-103.3008-103.2879-103.2879-102.9309-102.9309 -68.5010 -68.5010
   -68.5006 -68.5006 -63.8691 -63.8690 -63.8634 -63.8632 -63.7121 -63.7119
   -63.6495 -63.6495 -63.6039 -63.6038 -63.5560 -63.5559 -63.4265 -63.4260
   -63.4103 -63.4102 -63.2036 -63.2034 -35.0095 -35.0092 -35.0082 -35.0078
   -34.9641 -34.9600 -34.9598 -34.9555 -34.9273 -34.9272 -34.9269 -34.9269
   -12.9827 -12.6953 -12.5759 -12.1155 -12.0969 -11.8688 -11.8027 -11.7962
   -11.6840 -11.4629  -6.1917  -5.9394  -5.7589  -5.6916  -5.4606  -5.4295
    -5.4196  -4.7894  -4.6539  -4.2246  -4.1570  -3.8288  -3.7718  -3.7683
    -3.6292  -3.5973  -3.5838  -3.5554  -3.1451  -3.1352  -3.0606  -2.9031
    -2.6898  -2.6726  -2.6489  -2.6071  -2.5386  -2.3002  -2.2835  -2.2451
    -2.2386  -2.1459  -2.0778  -1.9004  -1.8654  -1.8580  -1.8510  -1.8027
    -1.8005  -1.6815  -1.5426  -1.5298  -1.2871  -1.2832  -1.1964  -1.1404
    -1.1078  -1.0327  -0.8753  -0.8662  -0.8078  -0.7872  -0.7601  -0.5317
    -0.5195  -0.4783  -0.3983  -0.3293  -0.0319   0.1177   0.1320   0.2627
     0.8644   1.0909   1.1973   1.3037   1.3562   1.4568   1.5726   1.5976
     1.9490   2.1073   2.2071   2.4363   2.6288   2.7284   3.2238   3.4921
     3.5450   3.5774   3.5885   3.6361

          k = 0.0000 0.4919 0.0000 ( 83969 PWs)   bands (ev):

  -103.3005-103.3005-103.2882-103.2882-102.9309-102.9309 -68.5008 -68.5007
   -68.5004 -68.5004 -63.8690 -63.8689 -63.8634 -63.8634 -63.7113 -63.7113
   -63.6531 -63.6531 -63.6007 -63.6007 -63.5563 -63.5562 -63.4264 -63.4260
   -63.4102 -63.4102 -63.2036 -63.2036 -35.0084 -35.0081 -35.0071 -35.0067
   -34.9630 -34.9590 -34.9588 -34.9547 -34.9360 -34.9360 -34.9357 -34.9357
   -12.8811 -12.5963 -12.4847 -12.0599 -12.0199 -11.8127 -11.7471 -11.7309
   -11.6201 -11.4201  -6.0978  -5.8494  -5.6563  -5.5817  -5.3834  -5.3425
    -5.3121  -4.7034  -4.5820  -4.1811  -4.1339  -3.9371  -3.8410  -3.8240
    -3.7111  -3.6706  -3.6086  -3.5628  -3.1766  -3.1753  -3.0730  -2.8883
    -2.7928  -2.7894  -2.7254  -2.6990  -2.6821  -2.6339  -2.3809  -2.2134
    -2.1844  -2.1474  -2.0948  -2.0732  -2.0301  -1.8965  -1.8486  -1.8204
    -1.7930  -1.7459  -1.6066  -1.5317  -1.5143  -1.3891  -1.3381  -1.2960
    -1.2117  -1.1987  -1.0615  -0.9239  -0.8731  -0.8615  -0.8493  -0.6119
    -0.5488  -0.5192  -0.4293  -0.3349  -0.0091   0.0154   0.2407   0.4470
     0.7889   0.9772   1.1136   1.2194   1.2909   1.3943   1.4832   1.6819
     1.8837   2.0143   2.1421   2.2666   2.4437   2.7180   2.8527   3.0174
     3.0863   3.2190   3.5087   3.6735

          k = 0.0000 0.9837 0.0000 ( 83891 PWs)   bands (ev):

  -103.2996-103.2995-103.2891-103.2891-102.9309-102.9309 -68.5002 -68.5001
   -68.4998 -68.4998 -63.8687 -63.8686 -63.8640 -63.8639 -63.7086 -63.7086
   -63.6616 -63.6616 -63.5933 -63.5933 -63.5578 -63.5577 -63.4263 -63.4262
   -63.4102 -63.4101 -63.2038 -63.2037 -35.0055 -35.0054 -35.0043 -35.0039
   -34.9605 -34.9594 -34.9589 -34.9585 -34.9585 -34.9562 -34.9554 -34.9526
   -12.5893 -12.3136 -12.2266 -11.9042 -11.8144 -11.6764 -11.5776 -11.5407
   -11.4477 -11.3049  -5.8637  -5.6157  -5.3943  -5.3370  -5.1855  -5.0824
    -5.0426  -4.5753  -4.5199  -4.2794  -4.1387  -4.0964  -3.9966  -3.9904
    -3.9250  -3.8938  -3.7961  -3.6186  -3.4936  -3.3872  -3.1963  -3.1790
    -3.1632  -3.0071  -2.9985  -2.8382  -2.7366  -2.6662  -2.5818  -2.5199
    -2.4210  -2.3814  -2.3198  -2.2561  -2.1853  -2.1055  -2.0154  -2.0138
    -1.9520  -1.8230  -1.7280  -1.7158  -1.6613  -1.4939  -1.4660  -1.4658
    -1.3475  -1.2510  -1.1920  -1.0303  -0.9636  -0.9051  -0.8898  -0.8615
    -0.8318  -0.7125  -0.4883  -0.3654  -0.2619  -0.2405   0.5768   0.7847
     0.7870   1.0420   1.0575   1.1354   1.2053   1.3086   1.3648   1.5766
     1.8531   1.9085   1.9606   2.1974   2.3562   2.4858   2.6319   2.6566
     2.8222   2.9634   3.8981   4.0305

          k = 0.0000 1.4756 0.0000 ( 83831 PWs)   bands (ev):

  -103.2982-103.2981-103.2905-103.2905-102.9308-102.9308 -68.4995 -68.4994
   -68.4992 -68.4992 -63.8682 -63.8681 -63.8648 -63.8646 -63.7043 -63.7042
   -63.6718 -63.6717 -63.5851 -63.5850 -63.5604 -63.5603 -63.4262 -63.4262
   -63.4102 -63.4102 -63.2039 -63.2038 -35.0023 -35.0022 -35.0010 -35.0008
   -34.9870 -34.9868 -34.9865 -34.9862 -34.9558 -34.9535 -34.9525 -34.9502
   -12.1513 -11.8978 -11.8586 -11.6786 -11.5530 -11.5154 -11.3351 -11.2578
   -11.2336 -11.1559  -5.7287  -5.4786  -5.3781  -5.3207  -5.0494  -5.0117
    -4.8514  -4.8459  -4.7025  -4.5564  -4.3945  -4.3091  -4.2464  -4.0926
    -4.0045  -3.9827  -3.8331  -3.7611  -3.7272  -3.5196  -3.4489  -3.4224
    -3.3331  -3.1181  -3.0206  -3.0138  -2.9787  -2.8652  -2.6828  -2.6704
    -2.6336  -2.5990  -2.4991  -2.3529  -2.2615  -2.1572  -2.1339  -2.0741
    -2.0574  -1.9751  -1.9488  -1.7924  -1.7272  -1.5891  -1.5302  -1.4697
    -1.3677  -1.3493  -1.3212  -1.3057  -1.0879  -1.0670  -1.0670  -1.0316
    -0.8123  -0.7534  -0.7298  -0.5168  -0.5088  -0.4351   0.6294   0.7610
     0.8927   1.0339   1.1128   1.2767   1.4263   1.4604   1.5707   1.6005
     1.8926   1.9441   1.9535   2.2890   2.3466   2.5749   2.7412   2.7588
     3.0517   3.1142   3.7407   3.8343

          k = 0.0000 1.9674 0.0000 ( 83842 PWs)   bands (ev):

  -103.2964-103.2964-103.2923-103.2922-102.9308-102.9308 -68.4989 -68.4988
   -68.4987 -68.4986 -63.8676 -63.8675 -63.8656 -63.8656 -63.6986 -63.6985
   -63.6818 -63.6817 -63.5775 -63.5774 -63.5641 -63.5641 -63.4263 -63.4263
   -63.4102 -63.4102 -63.2042 -63.2041 -35.0109 -35.0107 -35.0101 -35.0100
   -34.9984 -34.9983 -34.9970 -34.9969 -34.9525 -34.9513 -34.9495 -34.9483
   -11.6616 -11.5395 -11.4662 -11.3916 -11.3900 -11.3277 -11.1373 -11.1107
   -11.0249 -10.9980  -6.0054  -5.9905  -5.9433  -5.8912  -5.2758  -5.2430
    -5.0231  -4.9599  -4.7884  -4.6532  -4.3482  -4.2942  -4.2078  -3.9370
    -3.9131  -3.7807  -3.7036  -3.6667  -3.5583  -3.5469  -3.4143  -3.4013
    -3.3264  -3.2982  -3.2261  -3.1967  -2.9813  -2.9404  -2.8092  -2.8035
    -2.6236  -2.5616  -2.5463  -2.4004  -2.1994  -2.1943  -2.1430  -2.1326
    -2.1008  -2.0575  -2.0411  -1.8428  -1.8348  -1.7550  -1.6518  -1.6097
    -1.4219  -1.3914  -1.3653  -1.3397  -1.2851  -1.1964  -1.1382  -1.0925
    -0.9287  -0.8621  -0.8119  -0.6985  -0.6570  -0.6415   0.4697   0.5616
     1.0644   1.1193   1.1736   1.2574   1.4478   1.7902   1.8376   1.9909
     2.0721   2.1057   2.2254   2.3184   2.4144   2.5991   2.9606   2.9720
     3.1591   3.3807   3.4714   3.5065

          k = 0.0000-2.4593 0.0000 ( 83812 PWs)   bands (ev):

  -103.2949-103.2948-103.2938-103.2937-102.9308-102.9308 -68.4986 -68.4985
   -68.4985 -68.4984 -63.8671 -63.8670 -63.8662 -63.8661 -63.6919 -63.6918
   -63.6901 -63.6899 -63.5727 -63.5726 -63.5675 -63.5673 -63.4263 -63.4262
   -63.4102 -63.4102 -63.2042 -63.2042 -35.0193 -35.0192 -35.0184 -35.0184
   -34.9976 -34.9975 -34.9962 -34.9961 -34.9508 -34.9507 -34.9481 -34.9479
   -11.4102 -11.4061 -11.2613 -11.2503 -11.2448 -11.2327 -11.1400 -11.1256
   -10.9385 -10.9322  -6.2277  -6.2148  -6.2080  -6.2015  -5.4971  -5.4736
    -5.0446  -5.0418  -4.8357  -4.8339  -4.1033  -4.0966  -3.9815  -3.9651
    -3.8510  -3.8340  -3.5276  -3.4905  -3.4847  -3.4783  -3.4333  -3.4212
    -3.4175  -3.4110  -3.1690  -3.1369  -3.0087  -2.9971  -2.9316  -2.9110
    -2.5524  -2.5481  -2.4283  -2.3927  -2.2381  -2.2109  -2.1506  -2.1157
    -2.1156  -2.1041  -1.8894  -1.8702  -1.8559  -1.8451  -1.8041  -1.7790
    -1.4197  -1.4085  -1.3005  -1.2995  -1.2799  -1.2730  -1.1626  -1.1490
    -1.0531  -1.0502  -0.8694  -0.8618  -0.6655  -0.6371   0.4664   0.4817
     1.1631   1.1711   1.1762   1.1865   1.4876   1.5399   1.9199   1.9314
     2.3686   2.3807   2.3937   2.4064   2.6282   2.6315   2.9134   2.9264
     3.1405   3.1726   3.4482   3.5208

          k =-0.5000 0.0000 0.0000 ( 84046 PWs)   bands (ev):

  -103.3008-103.3008-103.2879-103.2879-102.9309-102.9309 -68.5010 -68.5010
   -68.5006 -68.5006 -63.8691 -63.8691 -63.8633 -63.8633 -63.7121 -63.7121
   -63.6495 -63.6495 -63.6040 -63.6040 -63.5559 -63.5558 -63.4263 -63.4263
   -63.4103 -63.4103 -63.2036 -63.2036 -35.0094 -35.0093 -35.0080 -35.0080
   -34.9629 -34.9629 -34.9568 -34.9568 -34.9272 -34.9272 -34.9269 -34.9269
   -12.8941 -12.8941 -12.2882 -12.2882 -12.0492 -12.0492 -11.7601 -11.7601
   -11.5486 -11.5486  -6.1005  -6.1005  -5.7611  -5.7611  -5.4137  -5.4136
    -5.0470  -5.0470  -4.5862  -4.5862  -3.8892  -3.8892  -3.7157  -3.7157
    -3.5709  -3.5708  -3.5164  -3.5164  -3.1969  -3.1969  -3.1346  -3.1345
    -2.6790  -2.6790  -2.6299  -2.6299  -2.4345  -2.4345  -2.2596  -2.2596
    -2.0927  -2.0927  -1.9506  -1.9506  -1.8941  -1.8941  -1.8356  -1.8356
    -1.6993  -1.6993  -1.6222  -1.6221  -1.2815  -1.2814  -1.1259  -1.1259
    -0.9892  -0.9892  -0.9487  -0.9486  -0.8181  -0.8180  -0.6119  -0.6119
    -0.5192  -0.5191  -0.3552  -0.3551   0.0962   0.0962   0.1378   0.1378
     1.0626   1.0627   1.2275   1.2275   1.4132   1.4132   1.4233   1.4233
     2.0223   2.0224   2.4867   2.4868   2.5422   2.5422   3.3790   3.3790
     3.5377   3.5377   3.6688   3.6689

          k =-0.5000 0.4919 0.0000 ( 83986 PWs)   bands (ev):

  -103.3005-103.3005-103.2882-103.2882-102.9309-102.9309 -68.5008 -68.5007
   -68.5004 -68.5004 -63.8690 -63.8690 -63.8636 -63.8635 -63.7112 -63.7112
   -63.6531 -63.6530 -63.6007 -63.6007 -63.5563 -63.5563 -63.4263 -63.4263
   -63.4102 -63.4102 -63.2035 -63.2035 -35.0083 -35.0082 -35.0069 -35.0069
   -34.9618 -34.9618 -34.9560 -34.9559 -34.9360 -34.9360 -34.9357 -34.9357
   -12.7939 -12.7938 -12.2007 -12.2007 -11.9951 -11.9950 -11.6972 -11.6972
   -11.4993 -11.4993  -6.0060  -6.0060  -5.6581  -5.6581  -5.3192  -5.3192
    -4.9652  -4.9652  -4.5289  -4.5288  -3.9619  -3.9618  -3.7823  -3.7823
    -3.5903  -3.5903  -3.4996  -3.4996  -3.3584  -3.3583  -3.0345  -3.0344
    -2.8090  -2.8089  -2.7053  -2.7053  -2.6553  -2.6553  -2.2664  -2.2664
    -2.1365  -2.1364  -2.0699  -2.0698  -1.9466  -1.9465  -1.8569  -1.8568
    -1.7380  -1.7380  -1.6799  -1.6799  -1.3947  -1.3947  -1.3378  -1.3378
    -1.1608  -1.1607  -0.9808  -0.9808  -0.8786  -0.8786  -0.7189  -0.7189
    -0.5433  -0.5433  -0.4015  -0.4014   0.0289   0.0289   0.3382   0.3382
     0.9031   0.9031   1.2395   1.2395   1.3324   1.3324   1.4618   1.4618
     1.8955   1.8955   2.2747   2.2747   2.4900   2.4900   2.9814   2.9815
     3.1366   3.1366   3.6499   3.6499

          k =-0.5000 0.9837 0.0000 ( 83958 PWs)   bands (ev):

  -103.2996-103.2995-103.2891-103.2891-102.9309-102.9309 -68.5002 -68.5001
   -68.4998 -68.4998 -63.8687 -63.8687 -63.8641 -63.8641 -63.7087 -63.7087
   -63.6617 -63.6616 -63.5934 -63.5933 -63.5577 -63.5577 -63.4263 -63.4263
   -63.4102 -63.4102 -63.2038 -63.2038 -35.0055 -35.0054 -35.0041 -35.0041
   -34.9600 -34.9600 -34.9588 -34.9588 -34.9576 -34.9576 -34.9536 -34.9536
   -12.5066 -12.5065 -11.9558 -11.9558 -11.8452 -11.8451 -11.5287 -11.5287
   -11.3614 -11.3614  -5.7651  -5.7650  -5.3923  -5.3922  -5.0796  -5.0795
    -4.8327  -4.8327  -4.4329  -4.4329  -4.1641  -4.1641  -4.0328  -4.0328
    -3.6859  -3.6859  -3.5770  -3.5770  -3.5669  -3.5668  -3.2585  -3.2584
    -3.1448  -3.1448  -2.9073  -2.9073  -2.6962  -2.6962  -2.5597  -2.5597
    -2.3820  -2.3820  -2.3303  -2.3303  -2.1063  -2.1063  -2.0139  -2.0138
    -1.8889  -1.8889  -1.7594  -1.7593  -1.5274  -1.5273  -1.4441  -1.4441
    -1.2430  -1.2429  -1.2035  -1.2035  -0.9684  -0.9684  -0.8735  -0.8735
    -0.7715  -0.7714  -0.3710  -0.3709  -0.2328  -0.2328   0.6374   0.6375
     0.9270   0.9270   1.1472   1.1472   1.3181   1.3181   1.4879   1.4879
     1.6776   1.6777   2.0938   2.0938   2.4305   2.4306   2.6898   2.6898
     2.8493   2.8493   3.9832   3.9834

          k =-0.5000 1.4756 0.0000 ( 83894 PWs)   bands (ev):

  -103.2982-103.2981-103.2905-103.2905-102.9308-102.9308 -68.4995 -68.4994
   -68.4992 -68.4992 -63.8683 -63.8682 -63.8648 -63.8647 -63.7044 -63.7043
   -63.6719 -63.6718 -63.5851 -63.5851 -63.5604 -63.5604 -63.4263 -63.4263
   -63.4102 -63.4102 -63.2040 -63.2040 -35.0023 -35.0023 -35.0010 -35.0009
   -34.9870 -34.9869 -34.9864 -34.9863 -34.9551 -34.9550 -34.9510 -34.9510
   -12.0785 -12.0785 -11.6394 -11.6394 -11.6153 -11.6153 -11.3168 -11.3168
   -11.1685 -11.1685  -5.6262  -5.6261  -5.2633  -5.2633  -5.1318  -5.1318
    -4.8925  -4.8925  -4.5616  -4.5616  -4.3915  -4.3914  -4.0731  -4.0730
    -3.9692  -3.9691  -3.8535  -3.8535  -3.6162  -3.6162  -3.4736  -3.4736
    -3.1267  -3.1267  -3.0611  -3.0611  -2.9258  -2.9258  -2.7794  -2.7794
    -2.5515  -2.5515  -2.4545  -2.4545  -2.1970  -2.1970  -2.1055  -2.1054
    -2.0201  -2.0201  -1.9086  -1.9086  -1.5768  -1.5768  -1.5058  -1.5058
    -1.3571  -1.3570  -1.3111  -1.3110  -1.1450  -1.1450  -0.9879  -0.9879
    -0.8441  -0.8441  -0.5947  -0.5947  -0.4568  -0.4568   0.6561   0.6561
     1.1181   1.1182   1.2255   1.2255   1.4130   1.4131   1.5303   1.5304
     1.8285   1.8286   2.0731   2.0731   2.5377   2.5377   2.8052   2.8052
     2.9731   2.9731   3.8764   3.8766

          k =-0.5000 1.9674 0.0000 ( 83748 PWs)   bands (ev):

  -103.2964-103.2963-103.2923-103.2922-102.9308-102.9308 -68.4989 -68.4988
   -68.4986 -68.4986 -63.8675 -63.8675 -63.8655 -63.8655 -63.6985 -63.6985
   -63.6817 -63.6817 -63.5773 -63.5773 -63.5641 -63.5640 -63.4262 -63.4261
   -63.4101 -63.4101 -63.2041 -63.2041 -35.0109 -35.0108 -35.0101 -35.0100
   -34.9984 -34.9983 -34.9970 -34.9969 -34.9520 -34.9520 -34.9488 -34.9488
   -11.6146 -11.6146 -11.4409 -11.4408 -11.3191 -11.3191 -11.1460 -11.1460
   -11.0033 -11.0033  -6.0530  -6.0530  -5.8329  -5.8328  -5.3034  -5.3034
    -4.9972  -4.9972  -4.7076  -4.7076  -4.3382  -4.3381  -4.0656  -4.0655
    -3.8723  -3.8722  -3.7094  -3.7094  -3.5122  -3.5122  -3.4000  -3.4000
    -3.2768  -3.2768  -3.1371  -3.1370  -3.0132  -3.0132  -2.8163  -2.8163
    -2.6302  -2.6302  -2.4305  -2.4305  -2.2588  -2.2587  -2.1560  -2.1560
    -2.0759  -2.0759  -1.9771  -1.9771  -1.6684  -1.6683  -1.6519  -1.6518
    -1.4396  -1.4395  -1.3558  -1.3558  -1.2571  -1.2570  -1.0442  -1.0442
    -0.9883  -0.9883  -0.7284  -0.7284  -0.6452  -0.6452   0.5146   0.5146
     1.1334   1.1334   1.3149   1.3150   1.4971   1.4972   1.9331   1.9331
     2.0864   2.0864   2.2257   2.2258   2.4787   2.4788   3.0038   3.0039
     3.1963   3.1964   3.5202   3.5202

          k =-0.5000-2.4593 0.0000 ( 83820 PWs)   bands (ev):

  -103.2949-103.2948-103.2938-103.2937-102.9308-102.9308 -68.4986 -68.4985
   -68.4985 -68.4984 -63.8671 -63.8670 -63.8662 -63.8662 -63.6919 -63.6919
   -63.6900 -63.6900 -63.5727 -63.5726 -63.5674 -63.5674 -63.4263 -63.4263
   -63.4101 -63.4101 -63.2043 -63.2043 -35.0193 -35.0192 -35.0184 -35.0184
   -34.9976 -34.9976 -34.9962 -34.9961 -34.9508 -34.9508 -34.9480 -34.9480
   -11.4082 -11.4081 -11.2595 -11.2595 -11.2325 -11.2325 -11.1369 -11.1369
   -10.9337 -10.9337  -6.3158  -6.3158  -6.0869  -6.0869  -5.5047  -5.5047
    -5.0342  -5.0342  -4.8576  -4.8576  -4.0617  -4.0617  -4.0426  -4.0426
    -3.7614  -3.7613  -3.6080  -3.6079  -3.4925  -3.4924  -3.4391  -3.4391
    -3.3975  -3.3975  -3.1463  -3.1463  -2.9004  -2.9004  -2.8565  -2.8565
    -2.6169  -2.6169  -2.4215  -2.4215  -2.2386  -2.2386  -2.2050  -2.2049
    -2.0851  -2.0851  -1.8821  -1.8820  -1.8644  -1.8644  -1.7061  -1.7061
    -1.4616  -1.4616  -1.3206  -1.3206  -1.2674  -1.2674  -1.1329  -1.1329
    -1.0770  -1.0770  -0.8616  -0.8616  -0.6445  -0.6445   0.4798   0.4798
     1.1781   1.1781   1.2884   1.2884   1.3855   1.3856   2.0530   2.0531
     2.1728   2.1728   2.4632   2.4632   2.6252   2.6253   2.9392   2.9392
     3.0575   3.0576   3.6946   3.6946

     the Fermi energy is     0.1206 ev

!    total energy              =   -9109.86766635 Ry
     total all-electron energy =     -9109.867666 Ry
     estimated scf accuracy    <          4.8E-09 Ry
     smearing contrib. (-TS)   =      -0.00022911 Ry
     internal energy E=F+TS    =   -9109.86743724 Ry

     The total energy is F=E-TS. E is the sum of the following terms:
     one-electron contribution =  -16672.64783983 Ry
     hartree contribution      =    8195.68254397 Ry
     xc contribution           =    -365.20437384 Ry
     ewald contribution        =    6000.04242392 Ry
     one-center paw contrib.   =   -6267.74019147 Ry

     convergence has been achieved in  19 iterations

     negative rho (up, down):  6.565E-02 0.000E+00

     Forces acting on atoms (cartesian axes, Ry/au):

     atom    1 type  1   force =     0.00238344    0.00747731   -0.00374992
     atom    2 type  1   force =     0.00239849   -0.00747686    0.00375722
     atom    3 type  1   force =    -0.00243650    0.00748042   -0.00372983
     atom    4 type  1   force =    -0.00237076   -0.00748039    0.00373223
     atom    5 type  2   force =    -0.00207678    0.00925345   -0.00329466
     atom    6 type  2   force =    -0.00211994   -0.00925016    0.00333163
     atom    7 type  2   force =     0.00210196    0.00925320   -0.00332601
     atom    8 type  2   force =     0.00213953   -0.00924732    0.00331522
     atom    9 type  2   force =     0.00008080    0.00510371   -0.00442944
     atom   10 type  2   force =    -0.00001144   -0.00510437    0.00441465
     atom   11 type  3   force =     0.00156712   -0.00599072   -0.00894581
     atom   12 type  3   force =     0.00156943    0.00598950    0.00893597
     atom   13 type  3   force =    -0.00072396    0.00396819   -0.00668719
     atom   14 type  3   force =    -0.00072306   -0.00397100    0.00669003
     atom   15 type  3   force =    -0.00153917   -0.00599041   -0.00894022
     atom   16 type  3   force =    -0.00153921    0.00599017    0.00893193
     atom   17 type  3   force =     0.00068923    0.00396840   -0.00668871
     atom   18 type  3   force =     0.00069014   -0.00397149    0.00669263
     atom   19 type  3   force =    -0.00003331    0.00536356   -0.00702338
     atom   20 type  3   force =    -0.00004601   -0.00536518    0.00701365

     Total force =     0.040878     Total SCF correction =     0.000372


     Computing stress (Cartesian axis) and pressure


     negative rho (up, down):  6.565E-02 0.000E+00
          total   stress  (Ry/bohr**3)                   (kbar)     P=        3.33
   0.00002171  -0.00000000  -0.00000000            3.19       -0.00       -0.00
  -0.00000000   0.00005751  -0.00000600           -0.00        8.46       -0.88
  -0.00000000  -0.00000600  -0.00001133           -0.00       -0.88       -1.67

     Energy error            =      3.0E-03 Ry
     Gradient error          =      9.3E-03 Ry/Bohr

     number of scf cycles    =   2
     number of bfgs steps    =   1

     energy             old  =   -9109.8647084775 Ry
     energy             new  =   -9109.8676663470 Ry

     CASE: energy            _new < energy            _old

     new trust radius        =       0.0176681286 bohr
     new conv_thr            =       0.0000000009 Ry


ATOMIC_POSITIONS (angstrom)
Ta              15.3958761868        0.9272661454       12.4375003492
Ta               6.5755585737        2.7324202528       12.5983331172
Ta               2.2610725783        0.9272699574       12.4373607697
Ta              11.0814453354        2.7324169289       12.5984658938
Ni              12.8610587356        0.9309496017       11.7566094584
Ni               4.0406691312        2.7287608625       13.2792327784
Ni               4.7958963798        0.9309440283       11.7563093631
Ni              13.6162688401        2.7287706659       13.2794872254
Ni               8.8284129745        0.9227793590       12.3615802672
Ni               0.0080667990        2.7369191203       12.6742409928
Te              14.2154540692        2.7346498038       10.5215533670
Te               5.3951418291        0.9250390551       14.5142722094
Te              10.5940641491        0.9212356988       10.5083014172
Te               1.7737845292        2.7384501949       14.5275346343
Te               3.4413106993        2.7346497493       10.5213328606
Te              12.2616087838        0.9250389401       14.5144913053
Te               7.0629296545        0.9212349454       10.5081384315
Te              15.8832096206        2.7384506738       14.5277119338
Te               0.0082436959        0.9231214090       10.8271285187
Te               8.8284897980        2.7365650615       14.2086661071



     Writing config-only to output data dir /ddn/data/physics/eamoujaes/2D-Ta2Ni3Te5/ELASTIC/C22/OUT/ta2ni3te5.save/ :
     XML data file
     NEW-OLD atomic charge density approx. for the potential

     negative rho (up, down):  6.523E-02 0.000E+00

     total cpu time spent up to now is     1925.9 secs

     Self-consistent Calculation

     iteration #  1     ecut=    60.00 Ry     beta= 0.20
     Davidson diagonalization with overlap
     ethr =  1.00E-06,  avg # of iterations =  6.5

     negative rho (up, down):  6.529E-02 0.000E+00

     total cpu time spent up to now is     1965.4 secs

     total energy              =   -9109.86940318 Ry
     estimated scf accuracy    <       0.00119528 Ry

     iteration #  2     ecut=    60.00 Ry     beta= 0.20
     Davidson diagonalization with overlap
     ethr =  5.43E-07,  avg # of iterations =  3.3

     negative rho (up, down):  6.531E-02 0.000E+00

     total cpu time spent up to now is     2002.7 secs

     total energy              =   -9109.86955434 Ry
     estimated scf accuracy    <       0.00364444 Ry

     iteration #  3     ecut=    60.00 Ry     beta= 0.20
     Davidson diagonalization with overlap
     ethr =  5.43E-07,  avg # of iterations =  2.0

     negative rho (up, down):  6.533E-02 0.000E+00

     total cpu time spent up to now is     2039.7 secs

     total energy              =   -9109.86973157 Ry
     estimated scf accuracy    <       0.00048607 Ry

     iteration #  4     ecut=    60.00 Ry     beta= 0.20
     Davidson diagonalization with overlap
     ethr =  2.21E-07,  avg # of iterations =  1.4

     negative rho (up, down):  6.535E-02 0.000E+00

     total cpu time spent up to now is     2076.7 secs

     total energy              =   -9109.86973534 Ry
     estimated scf accuracy    <       0.00042005 Ry

     iteration #  5     ecut=    60.00 Ry     beta= 0.20
     Davidson diagonalization with overlap
     ethr =  1.91E-07,  avg # of iterations =  1.0

     negative rho (up, down):  6.541E-02 0.000E+00

     total cpu time spent up to now is     2113.3 secs

     total energy              =   -9109.86972044 Ry
     estimated scf accuracy    <       0.00067971 Ry

     iteration #  6     ecut=    60.00 Ry     beta= 0.20
     Davidson diagonalization with overlap
     ethr =  1.91E-07,  avg # of iterations =  1.0

     negative rho (up, down):  6.543E-02 0.000E+00

     total cpu time spent up to now is     2150.1 secs

     total energy              =   -9109.86974700 Ry
     estimated scf accuracy    <       0.00003984 Ry

     iteration #  7     ecut=    60.00 Ry     beta= 0.20
     Davidson diagonalization with overlap
     ethr =  1.81E-08,  avg # of iterations =  2.0

     negative rho (up, down):  6.546E-02 0.000E+00

     total cpu time spent up to now is     2187.4 secs

     total energy              =   -9109.86975100 Ry
     estimated scf accuracy    <       0.00010019 Ry

     iteration #  8     ecut=    60.00 Ry     beta= 0.20
     Davidson diagonalization with overlap
     ethr =  1.81E-08,  avg # of iterations =  1.0

     negative rho (up, down):  6.547E-02 0.000E+00

     total cpu time spent up to now is     2224.2 secs

     total energy              =   -9109.86975608 Ry
     estimated scf accuracy    <       0.00000563 Ry

     iteration #  9     ecut=    60.00 Ry     beta= 0.20
     Davidson diagonalization with overlap
     ethr =  2.56E-09,  avg # of iterations =  2.0

     negative rho (up, down):  6.550E-02 0.000E+00

     total cpu time spent up to now is     2261.2 secs

     total energy              =   -9109.86975839 Ry
     estimated scf accuracy    <       0.00000271 Ry

     iteration # 10     ecut=    60.00 Ry     beta= 0.20
     Davidson diagonalization with overlap
     ethr =  1.23E-09,  avg # of iterations =  2.0

     negative rho (up, down):  6.551E-02 0.000E+00

     total cpu time spent up to now is     2299.0 secs

     total energy              =   -9109.86975932 Ry
     estimated scf accuracy    <       0.00000122 Ry

     iteration # 11     ecut=    60.00 Ry     beta= 0.20
     Davidson diagonalization with overlap
     ethr =  5.56E-10,  avg # of iterations =  2.0

     negative rho (up, down):  6.551E-02 0.000E+00

     total cpu time spent up to now is     2335.9 secs

     total energy              =   -9109.86975959 Ry
     estimated scf accuracy    <       0.00000042 Ry

     iteration # 12     ecut=    60.00 Ry     beta= 0.20
     Davidson diagonalization with overlap
     ethr =  1.92E-10,  avg # of iterations =  2.0

     negative rho (up, down):  6.552E-02 0.000E+00

     total cpu time spent up to now is     2373.6 secs

     total energy              =   -9109.86975980 Ry
     estimated scf accuracy    <       0.00000020 Ry

     iteration # 13     ecut=    60.00 Ry     beta= 0.20
     Davidson diagonalization with overlap
     ethr =  9.13E-11,  avg # of iterations =  2.3

     negative rho (up, down):  6.552E-02 0.000E+00

     total cpu time spent up to now is     2411.3 secs

     total energy              =   -9109.86975991 Ry
     estimated scf accuracy    <       0.00000008 Ry

     iteration # 14     ecut=    60.00 Ry     beta= 0.20
     Davidson diagonalization with overlap
     ethr =  3.73E-11,  avg # of iterations =  3.1

     negative rho (up, down):  6.552E-02 0.000E+00

     total cpu time spent up to now is     2448.7 secs

     total energy              =   -9109.86975993 Ry
     estimated scf accuracy    <       0.00000008 Ry

     iteration # 15     ecut=    60.00 Ry     beta= 0.20
     Davidson diagonalization with overlap
     ethr =  3.49E-11,  avg # of iterations =  1.0

     negative rho (up, down):  6.552E-02 0.000E+00

     total cpu time spent up to now is     2485.6 secs

     total energy              =   -9109.86975993 Ry
     estimated scf accuracy    <       0.00000001 Ry

     iteration # 16     ecut=    60.00 Ry     beta= 0.20
     Davidson diagonalization with overlap
     ethr =  6.51E-12,  avg # of iterations =  4.7

     negative rho (up, down):  6.552E-02 0.000E+00

     total cpu time spent up to now is     2523.0 secs

     total energy              =   -9109.86975993 Ry
     estimated scf accuracy    <       0.00000002 Ry

     iteration # 17     ecut=    60.00 Ry     beta= 0.20
     Davidson diagonalization with overlap
     ethr =  6.51E-12,  avg # of iterations =  1.0

     negative rho (up, down):  6.552E-02 0.000E+00

     total cpu time spent up to now is     2559.9 secs

     total energy              =   -9109.86975993 Ry
     estimated scf accuracy    <       0.00000002 Ry

     iteration # 18     ecut=    60.00 Ry     beta= 0.20
     Davidson diagonalization with overlap
     ethr =  6.51E-12,  avg # of iterations =  1.0

     negative rho (up, down):  6.552E-02 0.000E+00

     total cpu time spent up to now is     2596.7 secs

     total energy              =   -9109.86975993 Ry
     estimated scf accuracy    <       0.00000001 Ry

     iteration # 19     ecut=    60.00 Ry     beta= 0.20
     Davidson diagonalization with overlap
     ethr =  6.31E-12,  avg # of iterations =  1.0

     negative rho (up, down):  6.552E-02 0.000E+00

     total cpu time spent up to now is     2633.6 secs

     total energy              =   -9109.86975993 Ry
     estimated scf accuracy    <          2.7E-09 Ry

     iteration # 20     ecut=    60.00 Ry     beta= 0.20
     Davidson diagonalization with overlap
     ethr =  1.25E-12,  avg # of iterations =  2.1

     negative rho (up, down):  6.552E-02 0.000E+00

     total cpu time spent up to now is     2670.2 secs

     End of self-consistent calculation

          k = 0.0000 0.0000 0.0000 ( 83995 PWs)   bands (ev):

  -103.2922-103.2921-103.2796-103.2795-102.9267-102.9266 -68.5070 -68.5070
   -68.5066 -68.5066 -63.8597 -63.8595 -63.8540 -63.8539 -63.7010 -63.7008
   -63.6398 -63.6398 -63.5966 -63.5964 -63.5494 -63.5493 -63.4246 -63.4241
   -63.4064 -63.4063 -63.1960 -63.1958 -35.0131 -35.0128 -35.0119 -35.0114
   -34.9672 -34.9631 -34.9629 -34.9587 -34.9298 -34.9297 -34.9295 -34.9294
   -12.9632 -12.6729 -12.5617 -12.1080 -12.0819 -11.8630 -11.7886 -11.7849
   -11.6720 -11.4536  -6.1846  -5.9300  -5.7464  -5.6767  -5.4490  -5.4231
    -5.4051  -4.7702  -4.6381  -4.2100  -4.1368  -3.8143  -3.7639  -3.7535
    -3.6090  -3.5847  -3.5576  -3.5306  -3.1183  -3.1093  -3.0486  -2.8881
    -2.6810  -2.6573  -2.6282  -2.5990  -2.5269  -2.2945  -2.2665  -2.2360
    -2.2228  -2.1452  -2.0675  -1.8947  -1.8526  -1.8450  -1.8341  -1.8083
    -1.7965  -1.6860  -1.5312  -1.5305  -1.2844  -1.2840  -1.1889  -1.1215
    -1.1068  -1.0376  -0.8805  -0.8482  -0.7925  -0.7647  -0.7610  -0.5123
    -0.5074  -0.4797  -0.4012  -0.3307  -0.0321   0.1194   0.1296   0.2629
     0.8514   1.0917   1.1861   1.2901   1.3540   1.4548   1.5754   1.5788
     1.9503   2.1071   2.1955   2.4308   2.6246   2.7254   3.2136   3.4858
     3.5337   3.5661   3.5724   3.6218

          k = 0.0000 0.4919 0.0000 ( 83969 PWs)   bands (ev):

  -103.2918-103.2918-103.2799-103.2799-102.9267-102.9266 -68.5067 -68.5067
   -68.5064 -68.5064 -63.8595 -63.8595 -63.8541 -63.8541 -63.7002 -63.7002
   -63.6435 -63.6434 -63.5933 -63.5933 -63.5497 -63.5497 -63.4245 -63.4242
   -63.4063 -63.4063 -63.1961 -63.1960 -35.0120 -35.0118 -35.0108 -35.0104
   -34.9661 -34.9622 -34.9619 -34.9579 -34.9385 -34.9385 -34.9382 -34.9382
   -12.8619 -12.5741 -12.4708 -12.0521 -12.0052 -11.8070 -11.7325 -11.7191
   -11.6081 -11.4104  -6.0902  -5.8396  -5.6435  -5.5660  -5.3721  -5.3366
    -5.2979  -4.6843  -4.5652  -4.1660  -4.1135  -3.9196  -3.8260  -3.8099
    -3.6873  -3.6465  -3.5964  -3.5432  -3.1562  -3.1538  -3.0591  -2.8701
    -2.7773  -2.7771  -2.7110  -2.6860  -2.6680  -2.6241  -2.3666  -2.2051
    -2.1706  -2.1427  -2.0842  -2.0616  -2.0161  -1.8923  -1.8465  -1.8160
    -1.7915  -1.7439  -1.5945  -1.5266  -1.5047  -1.3730  -1.3323  -1.2973
    -1.2105  -1.1948  -1.0499  -0.9177  -0.8692  -0.8538  -0.8524  -0.6079
    -0.5462  -0.5195  -0.4198  -0.3315  -0.0102   0.0167   0.2451   0.4459
     0.7815   0.9716   1.1021   1.2123   1.2778   1.3919   1.4654   1.6849
     1.8835   2.0074   2.1379   2.2610   2.4358   2.7148   2.8447   3.0040
     3.0730   3.2062   3.5010   3.6682

          k = 0.0000 0.9837 0.0000 ( 83891 PWs)   bands (ev):

  -103.2909-103.2909-103.2808-103.2807-102.9267-102.9266 -68.5062 -68.5061
   -68.5058 -68.5058 -63.8592 -63.8592 -63.8547 -63.8545 -63.6976 -63.6976
   -63.6519 -63.6518 -63.5860 -63.5859 -63.5512 -63.5512 -63.4245 -63.4243
   -63.4063 -63.4062 -63.1962 -63.1961 -35.0092 -35.0090 -35.0079 -35.0076
   -34.9633 -34.9619 -34.9615 -34.9611 -34.9609 -34.9594 -34.9585 -34.9558
   -12.5709 -12.2921 -12.2133 -11.8952 -11.8001 -11.6685 -11.5640 -11.5280
   -11.4357 -11.2941  -5.8543  -5.6052  -5.3800  -5.3187  -5.1750  -5.0772
    -5.0282  -4.5508  -4.5010  -4.2599  -4.1167  -4.0775  -3.9836  -3.9684
    -3.8969  -3.8858  -3.7833  -3.6077  -3.4805  -3.3741  -3.1798  -3.1636
    -3.1425  -2.9934  -2.9847  -2.8263  -2.7260  -2.6497  -2.5675  -2.5195
    -2.4122  -2.3711  -2.3063  -2.2461  -2.1747  -2.0911  -2.0093  -1.9975
    -1.9477  -1.8164  -1.7166  -1.7117  -1.6579  -1.4894  -1.4601  -1.4588
    -1.3463  -1.2446  -1.1814  -1.0261  -0.9606  -0.9096  -0.8846  -0.8600
    -0.8294  -0.7153  -0.4817  -0.3672  -0.2624  -0.2392   0.5801   0.7802
     0.7853   1.0379   1.0483   1.1325   1.1896   1.2961   1.3587   1.5714
     1.8503   1.9086   1.9517   2.1893   2.3513   2.4764   2.6190   2.6494
     2.8105   2.9521   3.8905   4.0226

          k = 0.0000 1.4756 0.0000 ( 83831 PWs)   bands (ev):

  -103.2895-103.2895-103.2822-103.2821-102.9267-102.9266 -68.5054 -68.5054
   -68.5052 -68.5051 -63.8587 -63.8586 -63.8555 -63.8553 -63.6935 -63.6933
   -63.6619 -63.6618 -63.5777 -63.5777 -63.5538 -63.5538 -63.4244 -63.4243
   -63.4063 -63.4063 -63.1963 -63.1962 -35.0058 -35.0057 -35.0045 -35.0043
   -34.9895 -34.9893 -34.9890 -34.9887 -34.9590 -34.9567 -34.9557 -34.9534
   -12.1342 -11.8773 -11.8462 -11.6676 -11.5382 -11.5044 -11.3230 -11.2445
   -11.2215 -11.1435  -5.7146  -5.4655  -5.3556  -5.3012  -5.0269  -4.9999
    -4.8336  -4.8318  -4.6860  -4.5388  -4.3826  -4.2940  -4.2369  -4.0773
    -3.9876  -3.9698  -3.8230  -3.7517  -3.7181  -3.5069  -3.4316  -3.4061
    -3.3175  -3.1122  -3.0133  -3.0033  -2.9727  -2.8599  -2.6626  -2.6574
    -2.6194  -2.5873  -2.4869  -2.3369  -2.2466  -2.1438  -2.1247  -2.0671
    -2.0469  -1.9650  -1.9414  -1.7830  -1.7165  -1.5853  -1.5214  -1.4636
    -1.3617  -1.3415  -1.3203  -1.2991  -1.0841  -1.0672  -1.0620  -1.0285
    -0.8083  -0.7576  -0.7232  -0.5132  -0.5119  -0.4341   0.6273   0.7594
     0.8922   1.0322   1.0979   1.2722   1.4223   1.4523   1.5667   1.5926
     1.8852   1.9392   1.9478   2.2783   2.3416   2.5689   2.7317   2.7432
     3.0372   3.1037   3.7312   3.8144

          k = 0.0000 1.9674 0.0000 ( 83842 PWs)   bands (ev):

  -103.2878-103.2877-103.2839-103.2838-102.9267-102.9266 -68.5048 -68.5048
   -68.5047 -68.5046 -63.8581 -63.8580 -63.8563 -63.8563 -63.6879 -63.6878
   -63.6717 -63.6716 -63.5701 -63.5700 -63.5577 -63.5577 -63.4244 -63.4244
   -63.4064 -63.4063 -63.1966 -63.1965 -35.0126 -35.0125 -35.0119 -35.0117
   -35.0025 -35.0025 -35.0011 -35.0010 -34.9557 -34.9545 -34.9527 -34.9515
   -11.6464 -11.5275 -11.4465 -11.3788 -11.3762 -11.3112 -11.1262 -11.0985
   -11.0116 -10.9849  -5.9871  -5.9690  -5.9210  -5.8747  -5.2569  -5.2311
    -5.0075  -4.9403  -4.7762  -4.6359  -4.3397  -4.2815  -4.1980  -3.9333
    -3.9033  -3.7655  -3.6973  -3.6547  -3.5520  -3.5368  -3.3984  -3.3883
    -3.3199  -3.2904  -3.2218  -3.1927  -2.9625  -2.9247  -2.7955  -2.7884
    -2.6111  -2.5423  -2.5354  -2.3850  -2.1806  -2.1792  -2.1310  -2.1237
    -2.0929  -2.0469  -2.0338  -1.8286  -1.8235  -1.7520  -1.6399  -1.6020
    -1.4183  -1.3885  -1.3577  -1.3308  -1.2805  -1.1915  -1.1328  -1.0880
    -0.9258  -0.8526  -0.8087  -0.7012  -0.6523  -0.6434   0.4678   0.5585
[...]
     1.8492   1.9051   1.9375   2.1692   2.3423   2.4615   2.5968   2.6290
     2.7894   2.9308   3.8768   4.0023

          k = 0.0000 1.4756 0.0000 ( 83831 PWs)   bands (ev):

  -103.2781-103.2781-103.2711-103.2711-102.9188-102.9188 -68.5170 -68.5170
   -68.5168 -68.5168 -63.8454 -63.8453 -63.8423 -63.8421 -63.6774 -63.6773
   -63.6476 -63.6476 -63.5695 -63.5694 -63.5465 -63.5465 -63.4203 -63.4202
   -63.3994 -63.3994 -63.1824 -63.1823 -35.0130 -35.0129 -35.0116 -35.0115
   -34.9956 -34.9954 -34.9951 -34.9948 -34.9650 -34.9628 -34.9616 -34.9594
   -12.1011 -11.8368 -11.8230 -11.6471 -11.5094 -11.4844 -11.2937 -11.2276
   -11.1943 -11.1267  -5.6881  -5.4400  -5.3129  -5.2620  -4.9806  -4.9761
    -4.8045  -4.7980  -4.6558  -4.5043  -4.3613  -4.2697  -4.2143  -4.0488
    -3.9604  -3.9501  -3.8032  -3.7373  -3.6993  -3.4872  -3.3961  -3.3811
    -3.2971  -3.1034  -2.9990  -2.9868  -2.9529  -2.8473  -2.6380  -2.6350
    -2.5942  -2.5664  -2.4664  -2.3046  -2.2248  -2.1158  -2.1044  -2.0556
    -2.0303  -1.9497  -1.9276  -1.7668  -1.6960  -1.5807  -1.5053  -1.4530
    -1.3478  -1.3296  -1.3204  -1.2922  -1.0785  -1.0764  -1.0563  -1.0306
    -0.8092  -0.7605  -0.7125  -0.5257  -0.5050  -0.4345   0.6220   0.7543
     0.8925   1.0268   1.0587   1.2566   1.4141   1.4383   1.5421   1.5817
     1.8719   1.9293   1.9407   2.2505   2.3308   2.5597   2.7048   2.7148
     3.0091   3.0864   3.7023   3.7803

          k = 0.0000 1.9674 0.0000 ( 83842 PWs)   bands (ev):

  -103.2764-103.2764-103.2728-103.2727-102.9188-102.9188 -68.5164 -68.5164
   -68.5163 -68.5163 -63.8448 -63.8447 -63.8431 -63.8431 -63.6723 -63.6721
   -63.6569 -63.6569 -63.5620 -63.5618 -63.5503 -63.5503 -63.4203 -63.4203
   -63.3994 -63.3994 -63.1826 -63.1826 -35.0183 -35.0181 -35.0176 -35.0174
   -35.0100 -35.0099 -35.0086 -35.0085 -34.9617 -34.9606 -34.9588 -34.9576
   -11.6181 -11.5082 -11.4063 -11.3517 -11.3501 -11.2792 -11.0992 -11.0705
   -10.9951 -10.9678  -5.9512  -5.9268  -5.8772  -5.8410  -5.2199  -5.2014
    -4.9793  -4.9039  -4.7554  -4.6051  -4.3254  -4.2612  -4.1819  -3.9279
    -3.8838  -3.7384  -3.6866  -3.6316  -3.5419  -3.5202  -3.3752  -3.3658
    -3.3101  -3.2764  -3.2117  -3.1889  -2.9220  -2.8910  -2.7755  -2.7581
    -2.5904  -2.5173  -2.5157  -2.3559  -2.1620  -2.1522  -2.1131  -2.0949
    -2.0789  -2.0258  -2.0175  -1.8066  -1.8029  -1.7463  -1.6199  -1.5886
    -1.4126  -1.3866  -1.3430  -1.3128  -1.2729  -1.1857  -1.1275  -1.0852
    -0.9274  -0.8378  -0.8012  -0.7112  -0.6471  -0.6440   0.4588   0.5494
     1.0561   1.0691   1.1696   1.2192   1.4283   1.7692   1.8187   1.9806
     2.0621   2.0921   2.1966   2.3003   2.4095   2.5747   2.9196   2.9604
     3.1164   3.3365   3.4243   3.4633

          k = 0.0000-2.4593 0.0000 ( 83812 PWs)   bands (ev):

  -103.2746-103.2746-103.2745-103.2745-102.9188-102.9188 -68.5162 -68.5161
   -68.5161 -68.5161 -63.8441 -63.8440 -63.8439 -63.8438 -63.6659 -63.6658
   -63.6648 -63.6647 -63.5557 -63.5556 -63.5552 -63.5551 -63.4203 -63.4203
   -63.3994 -63.3994 -63.1827 -63.1827 -35.0267 -35.0267 -35.0259 -35.0259
   -35.0090 -35.0090 -35.0076 -35.0075 -34.9601 -34.9601 -34.9573 -34.9572
   -11.3780 -11.3772 -11.1950 -11.1928 -11.1911 -11.1909 -11.0994 -11.0990
   -10.9073 -10.9063  -6.1598  -6.1547  -6.1513  -6.1488  -5.4384  -5.4374
    -5.0093  -5.0075  -4.7899  -4.7888  -4.0813  -4.0802  -3.9381  -3.9334
    -3.8211  -3.8206  -3.4936  -3.4929  -3.4436  -3.4398  -3.4114  -3.4096
    -3.4086  -3.4076  -3.1175  -3.1166  -2.9710  -2.9653  -2.8595  -2.8589
    -2.5157  -2.5149  -2.3713  -2.3685  -2.1990  -2.1973  -2.0884  -2.0882
    -2.0723  -2.0717  -1.8553  -1.8529  -1.8324  -1.8290  -1.7668  -1.7650
    -1.4040  -1.4018  -1.2867  -1.2839  -1.2632  -1.2623  -1.1283  -1.1262
    -1.0235  -1.0222  -0.8747  -0.8745  -0.6572  -0.6560   0.4628   0.4629
     1.1318   1.1332   1.1544   1.1599   1.4989   1.5003   1.8974   1.9047
     2.3643   2.3667   2.3714   2.3734   2.6270   2.6277   2.9153   2.9157
     3.1172   3.1213   3.4435   3.4454

          k =-0.5000 0.0000 0.0000 ( 84046 PWs)   bands (ev):

  -103.2806-103.2805-103.2687-103.2687-102.9188-102.9188 -68.5186 -68.5186
   -68.5182 -68.5182 -63.8463 -63.8463 -63.8409 -63.8409 -63.6843 -63.6843
   -63.6262 -63.6262 -63.5881 -63.5881 -63.5422 -63.5421 -63.4203 -63.4203
   -63.3995 -63.3995 -63.1821 -63.1820 -35.0202 -35.0201 -35.0188 -35.0188
   -34.9719 -34.9718 -34.9659 -34.9659 -34.9362 -34.9362 -34.9359 -34.9359
   -12.8368 -12.8368 -12.2399 -12.2399 -12.0270 -12.0270 -11.7272 -11.7272
   -11.5201 -11.5201  -6.0778  -6.0777  -5.7232  -5.7232  -5.3845  -5.3844
    -4.9981  -4.9981  -4.5384  -4.5383  -3.8570  -3.8570  -3.6750  -3.6749
    -3.4869  -3.4869  -3.4692  -3.4691  -3.1665  -3.1664  -3.0630  -3.0630
    -2.6323  -2.6323  -2.6024  -2.6023  -2.3906  -2.3906  -2.2470  -2.2470
    -2.0540  -2.0540  -1.9403  -1.9402  -1.8440  -1.8440  -1.8408  -1.8407
    -1.6829  -1.6828  -1.6311  -1.6310  -1.2745  -1.2745  -1.1250  -1.1250
    -0.9685  -0.9685  -0.9351  -0.9350  -0.7515  -0.7515  -0.6251  -0.6250
    -0.4876  -0.4875  -0.3611  -0.3611   0.1151   0.1151   0.1177   0.1178
     1.0286   1.0286   1.2261   1.2262   1.3619   1.3619   1.4166   1.4167
     2.0210   2.0211   2.4673   2.4673   2.5200   2.5201   3.3480   3.3480
     3.4945   3.4945   3.6617   3.6617

          k =-0.5000 0.4919 0.0000 ( 83986 PWs)   bands (ev):

  -103.2803-103.2802-103.2690-103.2690-102.9188-102.9188 -68.5184 -68.5183
   -68.5180 -68.5180 -63.8462 -63.8462 -63.8411 -63.8411 -63.6835 -63.6835
   -63.6297 -63.6297 -63.5848 -63.5848 -63.5426 -63.5425 -63.4203 -63.4203
   -63.3994 -63.3994 -63.1820 -63.1820 -35.0191 -35.0191 -35.0178 -35.0177
   -34.9708 -34.9708 -34.9651 -34.9651 -34.9449 -34.9449 -34.9446 -34.9446
   -12.7374 -12.7373 -12.1528 -12.1528 -11.9717 -11.9717 -11.6647 -11.6647
   -11.4698 -11.4697  -5.9820  -5.9819  -5.6199  -5.6199  -5.2908  -5.2908
    -4.9156  -4.9155  -4.4795  -4.4795  -3.9221  -3.9221  -3.7285  -3.7285
    -3.5198  -3.5198  -3.4522  -3.4522  -3.3141  -3.3141  -2.9870  -2.9870
    -2.7576  -2.7576  -2.6756  -2.6756  -2.6192  -2.6191  -2.2382  -2.2382
    -2.1050  -2.1050  -2.0359  -2.0359  -1.9347  -1.9347  -1.8509  -1.8509
    -1.7191  -1.7190  -1.6754  -1.6754  -1.3639  -1.3639  -1.3258  -1.3258
    -1.1524  -1.1523  -0.9515  -0.9515  -0.8826  -0.8826  -0.7214  -0.7214
    -0.5343  -0.5342  -0.3878  -0.3878   0.0283   0.0283   0.3385   0.3385
     0.8875   0.8875   1.2045   1.2046   1.2899   1.2899   1.4528   1.4528
     1.8857   1.8858   2.2587   2.2588   2.4688   2.4688   2.9528   2.9529
     3.0994   3.0994   3.6260   3.6260

          k =-0.5000 0.9837 0.0000 ( 83958 PWs)   bands (ev):

  -103.2794-103.2794-103.2698-103.2698-102.9188-102.9188 -68.5178 -68.5178
   -68.5175 -68.5175 -63.8459 -63.8459 -63.8416 -63.8416 -63.6813 -63.6813
   -63.6381 -63.6380 -63.5775 -63.5775 -63.5439 -63.5439 -63.4204 -63.4203
   -63.3994 -63.3994 -63.1823 -63.1823 -35.0163 -35.0163 -35.0150 -35.0149
   -34.9686 -34.9686 -34.9675 -34.9675 -34.9666 -34.9666 -34.9628 -34.9627
   -12.4525 -12.4524 -11.9087 -11.9087 -11.8182 -11.8182 -11.4970 -11.4970
   -11.3289 -11.3289  -5.7367  -5.7366  -5.3519  -5.3518  -5.0521  -5.0520
    -4.7747  -4.7746  -4.3736  -4.3736  -4.1232  -4.1232  -3.9669  -3.9669
    -3.6320  -3.6319  -3.5425  -3.5425  -3.5243  -3.5243  -3.2192  -3.2191
    -3.1039  -3.1039  -2.8690  -2.8690  -2.6564  -2.6563  -2.5449  -2.5449
    -2.3552  -2.3552  -2.3024  -2.3024  -2.0691  -2.0691  -1.9941  -1.9940
    -1.8526  -1.8526  -1.7504  -1.7503  -1.5209  -1.5209  -1.4236  -1.4235
    -1.2295  -1.2295  -1.1915  -1.1915  -0.9743  -0.9743  -0.8680  -0.8680
    -0.7668  -0.7667  -0.3756  -0.3755  -0.2344  -0.2343   0.6399   0.6399
     0.9102   0.9102   1.1316   1.1316   1.2569   1.2569   1.4847   1.4848
     1.6603   1.6604   2.0777   2.0777   2.4027   2.4028   2.6608   2.6608
     2.8213   2.8213   3.9592   3.9592

          k =-0.5000 1.4756 0.0000 ( 83894 PWs)   bands (ev):

  -103.2781-103.2781-103.2711-103.2711-102.9188-102.9188 -68.5170 -68.5170
   -68.5168 -68.5168 -63.8455 -63.8455 -63.8422 -63.8422 -63.6774 -63.6774
   -63.6477 -63.6477 -63.5694 -63.5694 -63.5465 -63.5465 -63.4203 -63.4203
   -63.3994 -63.3994 -63.1824 -63.1824 -35.0129 -35.0129 -35.0116 -35.0115
   -34.9955 -34.9955 -34.9949 -34.9949 -34.9642 -34.9642 -34.9602 -34.9602
   -12.0285 -12.0284 -11.6075 -11.6075 -11.5673 -11.5672 -11.2848 -11.2848
   -11.1340 -11.1340  -5.5844  -5.5844  -5.1984  -5.1984  -5.0845  -5.0844
    -4.8481  -4.8480  -4.5093  -4.5093  -4.3530  -4.3529  -4.0473  -4.0473
    -3.9366  -3.9366  -3.8073  -3.8073  -3.5734  -3.5733  -3.4444  -3.4444
    -3.1038  -3.1037  -3.0213  -3.0213  -2.9169  -2.9168  -2.7393  -2.7393
    -2.5174  -2.5174  -2.4167  -2.4166  -2.1563  -2.1563  -2.0803  -2.0803
    -1.9874  -1.9874  -1.8888  -1.8887  -1.5529  -1.5529  -1.4876  -1.4876
    -1.3460  -1.3460  -1.2963  -1.2963  -1.1393  -1.1392  -0.9894  -0.9894
    -0.8379  -0.8379  -0.5957  -0.5957  -0.4573  -0.4573   0.6504   0.6504
     1.0879   1.0880   1.2093   1.2094   1.4033   1.4033   1.5226   1.5226
     1.7944   1.7944   2.0496   2.0496   2.5047   2.5047   2.7786   2.7786
     2.9406   2.9406   3.8319   3.8320

          k =-0.5000 1.9674 0.0000 ( 83748 PWs)   bands (ev):

  -103.2764-103.2764-103.2727-103.2727-102.9188-102.9188 -68.5164 -68.5164
   -68.5163 -68.5163 -63.8447 -63.8446 -63.8430 -63.8429 -63.6721 -63.6721
   -63.6569 -63.6569 -63.5618 -63.5618 -63.5503 -63.5502 -63.4202 -63.4202
   -63.3993 -63.3993 -63.1826 -63.1825 -35.0182 -35.0182 -35.0175 -35.0175
   -35.0100 -35.0099 -35.0085 -35.0085 -34.9612 -34.9612 -34.9581 -34.9581
   -11.5729 -11.5729 -11.3984 -11.3984 -11.2695 -11.2695 -11.1107 -11.1107
   -10.9717 -10.9717  -5.9945  -5.9945  -5.7731  -5.7731  -5.2549  -5.2549
    -4.9492  -4.9492  -4.6691  -4.6691  -4.3085  -4.3085  -4.0406  -4.0405
    -3.8538  -3.8538  -3.6707  -3.6706  -3.4856  -3.4856  -3.3684  -3.3684
    -3.2714  -3.2714  -3.1056  -3.1056  -2.9786  -2.9786  -2.7649  -2.7649
    -2.5955  -2.5955  -2.3925  -2.3925  -2.2125  -2.2125  -2.1284  -2.1284
    -2.0480  -2.0480  -1.9458  -1.9458  -1.6503  -1.6502  -1.6196  -1.6196
    -1.4320  -1.4319  -1.3358  -1.3358  -1.2428  -1.2428  -1.0381  -1.0380
    -0.9807  -0.9807  -0.7103  -0.7103  -0.6539  -0.6539   0.5032   0.5032
     1.0923   1.0924   1.3067   1.3067   1.4865   1.4865   1.9136   1.9136
     2.0705   2.0705   2.1921   2.1921   2.4732   2.4733   2.9613   2.9613
     3.1753   3.1753   3.4740   3.4741

          k =-0.5000-2.4593 0.0000 ( 83820 PWs)   bands (ev):

  -103.2746-103.2746-103.2745-103.2745-102.9188-102.9188 -68.5162 -68.5161
   -68.5161 -68.5161 -63.8441 -63.8441 -63.8438 -63.8438 -63.6659 -63.6659
   -63.6648 -63.6648 -63.5556 -63.5556 -63.5552 -63.5552 -63.4203 -63.4203
   -63.3993 -63.3993 -63.1828 -63.1827 -35.0267 -35.0267 -35.0259 -35.0259
   -35.0090 -35.0090 -35.0076 -35.0075 -34.9601 -34.9601 -34.9573 -34.9573
   -11.3776 -11.3776 -11.2016 -11.2015 -11.1795 -11.1795 -11.1047 -11.1047
   -10.9051 -10.9051  -6.2571  -6.2570  -6.0259  -6.0259  -5.4582  -5.4582
    -4.9973  -4.9972  -4.8154  -4.8154  -4.0273  -4.0272  -4.0253  -4.0252
    -3.7354  -3.7354  -3.5858  -3.5858  -3.4771  -3.4771  -3.3968  -3.3968
    -3.3860  -3.3860  -3.1090  -3.1090  -2.8759  -2.8758  -2.8151  -2.8150
    -2.5607  -2.5607  -2.3827  -2.3827  -2.2071  -2.2071  -2.1656  -2.1656
    -2.0409  -2.0409  -1.8682  -1.8682  -1.8395  -1.8395  -1.6789  -1.6789
    -1.4492  -1.4491  -1.3089  -1.3089  -1.2496  -1.2496  -1.1094  -1.1094
    -1.0570  -1.0569  -0.8585  -0.8584  -0.6528  -0.6527   0.4687   0.4688
     1.1303   1.1304   1.2807   1.2807   1.3723   1.3723   2.0196   2.0196
     2.1590   2.1590   2.4390   2.4390   2.6253   2.6254   2.9196   2.9196
     3.0457   3.0457   3.6455   3.6458

     the Fermi energy is     0.1178 ev

!    total energy              =   -9109.87100115 Ry
     total all-electron energy =     -9109.871001 Ry
     estimated scf accuracy    <          3.4E-11 Ry
     smearing contrib. (-TS)   =      -0.00033601 Ry
     internal energy E=F+TS    =   -9109.87066514 Ry

     The total energy is F=E-TS. E is the sum of the following terms:
     one-electron contribution =  -16619.49566432 Ry
     hartree contribution      =    8169.17842194 Ry
     xc contribution           =    -365.04997838 Ry
     ewald contribution        =    5973.22933414 Ry
     one-center paw contrib.   =   -6267.73277851 Ry

     convergence has been achieved in  20 iterations

     negative rho (up, down):  6.527E-02 0.000E+00

     Forces acting on atoms (cartesian axes, Ry/au):

     atom    1 type  1   force =    -0.00022379   -0.00031204   -0.00056551
     atom    2 type  1   force =    -0.00021046    0.00031226    0.00056849
     atom    3 type  1   force =     0.00021060   -0.00031288   -0.00056369
     atom    4 type  1   force =     0.00020661    0.00031158    0.00056284
     atom    5 type  2   force =     0.00086044   -0.00012469    0.00013442
     atom    6 type  2   force =     0.00086678    0.00012668   -0.00012899
     atom    7 type  2   force =    -0.00085324   -0.00012709    0.00013841
     atom    8 type  2   force =    -0.00086924    0.00012630   -0.00014282
     atom    9 type  2   force =    -0.00000173   -0.00028914    0.00085389
     atom   10 type  2   force =     0.00000784    0.00029223   -0.00085438
     atom   11 type  3   force =     0.00012262   -0.00031406   -0.00006775
     atom   12 type  3   force =     0.00012277    0.00031346    0.00007351
     atom   13 type  3   force =     0.00031064    0.00020834    0.00075604
     atom   14 type  3   force =     0.00031652   -0.00021101   -0.00075962
     atom   15 type  3   force =    -0.00012145   -0.00031197   -0.00007146
     atom   16 type  3   force =    -0.00012427    0.00031346    0.00007145
     atom   17 type  3   force =    -0.00030873    0.00020792    0.00075729
     atom   18 type  3   force =    -0.00030769   -0.00021121   -0.00076475
     atom   19 type  3   force =     0.00000068   -0.00011297    0.00048399
     atom   20 type  3   force =    -0.00000488    0.00011484   -0.00048135

     Total force =     0.003229     Total SCF correction =     0.000038


     Computing stress (Cartesian axis) and pressure


     negative rho (up, down):  6.527E-02 0.000E+00
          total   stress  (Ry/bohr**3)                   (kbar)     P=        0.16
   0.00001009  -0.00000000  -0.00000000            1.49       -0.00       -0.00
  -0.00000000   0.00003414   0.00000032           -0.00        5.02        0.05
  -0.00000000   0.00000032  -0.00004094           -0.00        0.05       -6.02

     Energy error            =      5.2E-05 Ry
     Gradient error          =      8.7E-04 Ry/Bohr

     bfgs converged in   7 scf cycles and   6 bfgs steps
     (criteria: energy <  1.0E-04 Ry, force <  1.0E-03 Ry/Bohr)

     End of BFGS Geometry Optimization

     Final energy             =   -9109.8710011474 Ry

     File /ddn/data/physics/eamoujaes/2D-Ta2Ni3Te5/ELASTIC/C22/OUT/ta2ni3te5.bfgs deleted, as requested
Begin final coordinates

ATOMIC_POSITIONS (angstrom)
Ta              15.3975336761        0.9362040353       12.4311143825
Ta               6.5772182945        2.7234720340       12.6047205328
Ta               2.2594043301        0.9362066378       12.4309649256
Ta              11.0797124039        2.7234738149       12.6048634195
Ni              12.8601093202        0.9340895051       11.7489007102
Ni               4.0397882555        2.7256426324       13.2869206710
Ni               4.7968241493        0.9340925100       11.7486641307
Ni              13.6171554098        2.7256396924       13.2871790772
Ni               8.8284814227        0.9332516573       12.3538743441
Ni               0.0081853770        2.7264706783       12.6819295364
Te              14.2197077768        2.7291277147       10.5020845662
Te               5.3993943468        0.9305660715       14.5337297899
Te              10.5957580926        0.9290104742       10.5013737613
Te               1.7754312129        2.7306540101       14.5344582670
Te               3.4371222346        2.7291222986       10.5019018397
Te              12.2574446000        0.9305646211       14.5339255078
Te               7.0612235829        0.9290124972       10.5012622411
Te              15.8814958429        2.7306543100       14.5346103475
Te               0.0081536585        0.9343866518       10.8120358854
Te               8.8284183762        2.7252906073       14.2237370640
End final coordinates



     Writing all to output data dir /ddn/data/physics/eamoujaes/2D-Ta2Ni3Te5/ELASTIC/C22/OUT/ta2ni3te5.save/ :
     XML data file, charge density, pseudopotentials, collected wavefunctions
 
     init_run     :     50.57s CPU     63.01s WALL (       1 calls)
     electrons    :   4225.52s CPU   5458.85s WALL (       7 calls)
     update_pot   :    161.53s CPU    205.47s WALL (       6 calls)
     forces       :     11.97s CPU     15.02s WALL (       7 calls)
     stress       :     21.73s CPU     33.56s WALL (       7 calls)

     Called by init_run:
     wfcinit      :      5.51s CPU      7.18s WALL (       1 calls)
     potinit      :     40.70s CPU     50.23s WALL (       1 calls)
     hinit0       :      2.56s CPU      3.00s WALL (       1 calls)

     Called by electrons:
     c_bands      :    289.09s CPU    423.82s WALL (     149 calls)
     sum_band     :    101.52s CPU    134.77s WALL (     149 calls)
     v_of_rho     :     51.94s CPU     68.77s WALL (     153 calls)
     newd         :     11.17s CPU     18.07s WALL (     153 calls)
                                       18.07s GPU  (     153 calls)
     PAW_pot      :   4075.60s CPU   5195.73s WALL (     159 calls)
     mix_rho      :     15.71s CPU     29.73s WALL (     149 calls)

     Called by c_bands:
     init_us_2    :     25.88s CPU     32.19s WALL (    3828 calls)
     init_us_2:cp :     21.42s CPU     26.94s WALL (      72 calls)
     init_us_2:gp :      4.37s CPU      5.14s WALL (    3756 calls)
     cegterg      :    163.39s CPU    279.86s WALL (    1788 calls)

     Called by *egterg:
     cdiaghg      :     14.37s CPU     22.94s WALL (    5566 calls)
                                       22.91s GPU  (    5566 calls)
     h_psi        :    119.81s CPU    208.39s WALL (    5686 calls)
                                      207.91s GPU  (    5686 calls)
     s_psi        :      2.61s CPU      3.58s WALL (    5686 calls)
     g_psi        :      0.01s CPU      1.74s WALL (    3886 calls)
                                        1.71s GPU  (    3886 calls)

     Called by h_psi:
     h_psi:calbec :      0.19s CPU      7.86s WALL (    5686 calls)
                                        7.83s GPU  (    5686 calls)
     vloc_psi     :    108.00s CPU    188.86s WALL (    5686 calls)
                                      188.83s GPU  (    5686 calls)
     add_vuspsi   :      1.94s CPU      9.69s WALL (    5686 calls)
                                        9.66s GPU  (    5686 calls)

     General routines
     calbec       :     59.72s CPU    100.45s WALL (    7966 calls)
     fft          :     15.01s CPU     15.77s WALL (    2159 calls)
                                        0.78s GPU  (    2006 calls)
     ffts         :      3.95s CPU      3.98s WALL (     302 calls)
                                        0.02s GPU  (     149 calls)
     fftw         :      0.64s CPU    166.47s WALL (   90034 calls)
                                      165.88s GPU  (   90034 calls)
     interpolate  :     21.54s CPU     22.52s WALL (     153 calls)
 
     Parallel routines
 
     PWSCF        :      1h18m CPU      1h41m WALL

 
   This run was terminated on:  14:13:55  28Jul2024            

=------------------------------------------------------------------------------=
   JOB DONE.
=------------------------------------------------------------------------------=
