
     Program PWSCF v.7.3 starts on 28Jul2024 at 14:28:37 

     This program is part of the open-source Quantum ESPRESSO suite
     for quantum simulation of materials; please cite
         "P. Giannozzi et al., J. Phys.:Condens. Matter 21 395502 (2009);
         "P. Giannozzi et al., J. Phys.:Condens. Matter 29 465901 (2017);
         "P. Giannozzi et al., J. Chem. Phys. 152 154105 (2020);
          URL http://www.quantum-espresso.org", 
     in publications or presentations arising from this work. More details at
     http://www.quantum-espresso.org/quote

     Parallel version (MPI & OpenMP), running on      32 processor cores
     Number of MPI processes:                 1
     Threads/MPI process:                    32

     MPI processes distributed on     1 nodes
     206798 MiB available memory on the printing compute node when the environment starts
 
     Waiting for input...
     Reading input from standard input
Warning: card &CELL ignored
Warning: card CELL_DYNAMICS='BFGS' ignored
Warning: card PRESS=0.0 ignored
Warning: card CELL_DOFREE='2DXY' ignored
Warning: card / ignored

     Current dimensions of program PWSCF are:
     Max number of different atomic species (ntypx) = 10
     Max number of k-points (npk) =  40000
     Max angular momentum in pseudopotentials (lmaxx) =  4
read_pp_mesh; mismatch in mesh size, discarding the one in header
read_pp_mesh; mismatch in mesh size, discarding the one in header
read_pp_mesh; mismatch in mesh size, discarding the one in header
 
     Subspace diagonalization in iterative solution of the eigenvalue problem:
     a serial algorithm will be used

 
     G-vector sticks info
     --------------------
     sticks:   dense  smooth     PW     G-vecs:    dense   smooth      PW
     Sum        8985    4499   1273              1976061   698691  103639
 
     Using Slab Decomposition
 


     bravais-lattice index     =            0
     lattice parameter (alat)  =      33.3357  a.u.
     unit-cell volume          =   11125.3030 (a.u.)^3
     number of atoms/cell      =           20
     number of atomic types    =            3
     number of electrons       =       220.00
     number of Kohn-Sham states=          132
     kinetic-energy cutoff     =      60.0000  Ry
     charge density cutoff     =     480.0000  Ry
     scf convergence threshold =      1.0E-08
     mixing beta               =       0.2000
     number of iterations used =            8  plain     mixing
     energy convergence thresh.=      1.0E-04
     force convergence thresh. =      1.0E-03
     Exchange-correlation= SLA PW PBX PBC
                           (   1   4   3   4   0   0   0)
     nstep                     =         2000


     GPU acceleration is ACTIVE.  1 visible GPUs per MPI rank
     GPU-aware MPI enabled


     celldm(1)=  33.335714  celldm(2)=   0.000000  celldm(3)=   0.000000
     celldm(4)=   0.000000  celldm(5)=   0.000000  celldm(6)=   0.000000

     crystal axes: (cart. coord. in units of alat)
               a(1) = (   1.000000   0.000000   0.000000 )  
               a(2) = (   0.000000   0.211610   0.000000 )  
               a(3) = (   0.000000   0.000000   1.419211 )  

     reciprocal axes: (cart. coord. in units 2 pi/alat)
               b(1) = (  1.000000  0.000000  0.000000 )  
               b(2) = (  0.000000  4.725682  0.000000 )  
               b(3) = (  0.000000  0.000000  0.704617 )  


     PseudoPot. # 1 for Ta read from file:
     /ddn/data/physics/eamoujaes/PSEUDO-CREATED/Ta.upf
     MD5 check sum: d865b2c2c09566b116f2b8decb2c153d
     Pseudo is Projector augmented-wave + core cor, Zval = 13.0
     Generated using ATOMPAW code
     Shape of augmentation charge: SINC**2
     Using radial grid of 2342 points,  6 beta functions with: 
                l(1) =   0
                l(2) =   0
                l(3) =   1
                l(4) =   1
                l(5) =   2
                l(6) =   2
     Q(r) pseudized with 0 coefficients 


     PseudoPot. # 2 for Ni read from file:
     /ddn/data/physics/eamoujaes/PSEUDO-CREATED/Ni.upf
     MD5 check sum: 85a2a5d9d38f4289a1cc30d5adb66a03
     Pseudo is Projector augmented-wave + core cor, Zval = 18.0
     Generated using ATOMPAW code
     Shape of augmentation charge: SINC**2
     Using radial grid of 2342 points,  6 beta functions with: 
                l(1) =   0
                l(2) =   0
                l(3) =   1
                l(4) =   1
                l(5) =   2
                l(6) =   2
     Q(r) pseudized with 0 coefficients 


     PseudoPot. # 3 for Te read from file:
     /ddn/data/physics/eamoujaes/PSEUDO-CREATED/Te.upf
     MD5 check sum: 8d958f193a7511a138982c2e72838810
     Pseudo is Projector augmented-wave + core cor, Zval =  6.0
     Generated using ATOMPAW code
     Shape of augmentation charge: SINC**2
     Using radial grid of 2342 points,  4 beta functions with: 
                l(1) =   0
                l(2) =   0
                l(3) =   1
                l(4) =   1
     Q(r) pseudized with 0 coefficients 


     atomic species   valence    mass     pseudopotential
     Ta               13.00   180.94790     Ta( 1.00)
     Ni               18.00    58.69340     Ni( 1.00)
     Te                6.00   127.60000     Te( 1.00)

     No symmetry found



   Cartesian axes

     site n.     atom                  positions (alat units)
         1        Ta     tau(   1) = (   0.8725286   0.0518649   0.7054131  )
         2        Ta     tau(   2) = (   0.3725263   0.1555948   0.7138118  )
         3        Ta     tau(   3) = (   0.1284065   0.0518649   0.7054032  )
         4        Ta     tau(   4) = (   0.6284092   0.1555948   0.7138208  )
         5        Ni     tau(   5) = (   0.7292542   0.0518649   0.6667436  )
         6        Ni     tau(   6) = (   0.2292509   0.1555948   0.7524812  )
         7        Ni     tau(   7) = (   0.2716741   0.0518649   0.6667284  )
         8        Ni     tau(   8) = (   0.7716766   0.1555948   0.7524957  )
         9        Ni     tau(   9) = (   0.5004590   0.0518649   0.7011256  )
        10        Ni     tau(  10) = (   0.0004579   0.1555948   0.7180981  )
        11        Te     tau(  11) = (   0.8057052   0.1555948   0.5972198  )
        12        Te     tau(  12) = (   0.3057012   0.0518649   0.8220046  )
        13        Te     tau(  13) = (   0.6006311   0.0518649   0.5963172  )
        14        Te     tau(  14) = (   0.1006292   0.1555948   0.8229072  )
        15        Te     tau(  15) = (   0.1952149   0.1555948   0.5972072  )
        16        Te     tau(  16) = (   0.6952178   0.0518649   0.8220171  )
        17        Te     tau(  17) = (   0.4003072   0.0518649   0.5963080  )
        18        Te     tau(  18) = (   0.9003091   0.1555948   0.8229170  )
        19        Te     tau(  19) = (   0.0004704   0.0518649   0.6143601  )
        20        Te     tau(  20) = (   0.5004710   0.1555948   0.8048626  )

     number of k points=    12  Gaussian smearing, width (Ry)=  0.0020
                       cart. coord. in units 2pi/alat
        k(    1) = (   0.0000000   0.0000000   0.0000000), wk =   0.1000000
        k(    2) = (   0.0000000   0.4725682   0.0000000), wk =   0.2000000
        k(    3) = (   0.0000000   0.9451365   0.0000000), wk =   0.2000000
        k(    4) = (   0.0000000   1.4177047   0.0000000), wk =   0.2000000
        k(    5) = (   0.0000000   1.8902730   0.0000000), wk =   0.2000000
        k(    6) = (   0.0000000  -2.3628412   0.0000000), wk =   0.1000000
        k(    7) = (  -0.5000000   0.0000000   0.0000000), wk =   0.1000000
        k(    8) = (  -0.5000000   0.4725682   0.0000000), wk =   0.2000000
        k(    9) = (  -0.5000000   0.9451365   0.0000000), wk =   0.2000000
        k(   10) = (  -0.5000000   1.4177047   0.0000000), wk =   0.2000000
        k(   11) = (  -0.5000000   1.8902730   0.0000000), wk =   0.2000000
        k(   12) = (  -0.5000000  -2.3628412   0.0000000), wk =   0.1000000

     Dense  grid:  1976061 G-vectors     FFT dimensions: ( 240,  50, 360)

     Smooth grid:   698691 G-vectors     FFT dimensions: ( 180,  36, 240)

     Estimated max dynamical RAM per process >      10.09 GB

     Initial potential from superposition of free atoms

     starting charge     219.9927, renormalised to     220.0000

     negative rho (up, down):  5.202E-02 0.000E+00
     Starting wfcs are  260 randomized atomic wfcs
     Checking if some PAW data can be deallocated... 

     total cpu time spent up to now is       65.6 secs

     Self-consistent Calculation

     iteration #  1     ecut=    60.00 Ry     beta= 0.20
     Davidson diagonalization with overlap
     ethr =  1.00E-02,  avg # of iterations =  2.8

     negative rho (up, down):  5.254E-02 0.000E+00

     total cpu time spent up to now is      102.9 secs

     total energy              =   -9108.00671322 Ry
     estimated scf accuracy    <       7.64982881 Ry

     iteration #  2     ecut=    60.00 Ry     beta= 0.20
     Davidson diagonalization with overlap
     ethr =  3.48E-03,  avg # of iterations =  3.0

     negative rho (up, down):  5.378E-02 0.000E+00

     total cpu time spent up to now is      140.1 secs

     total energy              =   -9108.17904166 Ry
     estimated scf accuracy    <      13.76503125 Ry

     iteration #  3     ecut=    60.00 Ry     beta= 0.20
     Davidson diagonalization with overlap
     ethr =  3.48E-03,  avg # of iterations =  1.3

     negative rho (up, down):  5.460E-02 0.000E+00

     total cpu time spent up to now is      177.0 secs

     total energy              =   -9109.85382377 Ry
     estimated scf accuracy    <       2.53744595 Ry

     iteration #  4     ecut=    60.00 Ry     beta= 0.20
     Davidson diagonalization with overlap
     ethr =  1.15E-03,  avg # of iterations =  1.3

     negative rho (up, down):  5.575E-02 0.000E+00

     total cpu time spent up to now is      213.8 secs

     total energy              =   -9109.93954730 Ry
     estimated scf accuracy    <       0.89969905 Ry

     iteration #  5     ecut=    60.00 Ry     beta= 0.20
     Davidson diagonalization with overlap
     ethr =  4.09E-04,  avg # of iterations =  1.3

     negative rho (up, down):  5.887E-02 0.000E+00

     total cpu time spent up to now is      250.7 secs

     total energy              =   -9109.83674061 Ry
     estimated scf accuracy    <       0.51798747 Ry

     iteration #  6     ecut=    60.00 Ry     beta= 0.20
     Davidson diagonalization with overlap
     ethr =  2.35E-04,  avg # of iterations =  4.3

     negative rho (up, down):  6.169E-02 0.000E+00

     total cpu time spent up to now is      288.0 secs

     total energy              =   -9109.87078239 Ry
     estimated scf accuracy    <       0.31632016 Ry

     iteration #  7     ecut=    60.00 Ry     beta= 0.20
     Davidson diagonalization with overlap
     ethr =  1.44E-04,  avg # of iterations =  3.1

     negative rho (up, down):  6.197E-02 0.000E+00

     total cpu time spent up to now is      325.5 secs

     total energy              =   -9109.87209391 Ry
     estimated scf accuracy    <       0.52640916 Ry

     iteration #  8     ecut=    60.00 Ry     beta= 0.20
     Davidson diagonalization with overlap
     ethr =  1.44E-04,  avg # of iterations =  1.0

     negative rho (up, down):  6.221E-02 0.000E+00

     total cpu time spent up to now is      362.6 secs

     total energy              =   -9109.87267062 Ry
     estimated scf accuracy    <       0.08520565 Ry

     iteration #  9     ecut=    60.00 Ry     beta= 0.20
     Davidson diagonalization with overlap
     ethr =  3.87E-05,  avg # of iterations =  3.1

     negative rho (up, down):  6.272E-02 0.000E+00

     total cpu time spent up to now is      399.9 secs

     total energy              =   -9109.88352540 Ry
     estimated scf accuracy    <       0.01733172 Ry

     iteration # 10     ecut=    60.00 Ry     beta= 0.20
     Davidson diagonalization with overlap
     ethr =  7.88E-06,  avg # of iterations =  9.5

     negative rho (up, down):  6.387E-02 0.000E+00

     total cpu time spent up to now is      437.8 secs

     total energy              =   -9109.88264829 Ry
     estimated scf accuracy    <       0.02264306 Ry

     iteration # 11     ecut=    60.00 Ry     beta= 0.20
     Davidson diagonalization with overlap
     ethr =  7.88E-06,  avg # of iterations =  1.1

     negative rho (up, down):  6.480E-02 0.000E+00

     total cpu time spent up to now is      475.0 secs

     total energy              =   -9109.88193967 Ry
     estimated scf accuracy    <       0.01087819 Ry

     iteration # 12     ecut=    60.00 Ry     beta= 0.20
     Davidson diagonalization with overlap
     ethr =  4.94E-06,  avg # of iterations =  1.3

     negative rho (up, down):  6.502E-02 0.000E+00

     total cpu time spent up to now is      511.8 secs

     total energy              =   -9109.88265671 Ry
     estimated scf accuracy    <       0.00113544 Ry

     iteration # 13     ecut=    60.00 Ry     beta= 0.20
     Davidson diagonalization with overlap
     ethr =  5.16E-07,  avg # of iterations =  2.4

     negative rho (up, down):  6.521E-02 0.000E+00

     total cpu time spent up to now is      548.9 secs

     total energy              =   -9109.88276784 Ry
     estimated scf accuracy    <       0.00036540 Ry

     iteration # 14     ecut=    60.00 Ry     beta= 0.20
     Davidson diagonalization with overlap
     ethr =  1.66E-07,  avg # of iterations =  1.9

     negative rho (up, down):  6.533E-02 0.000E+00

     total cpu time spent up to now is      586.1 secs

     total energy              =   -9109.88279546 Ry
     estimated scf accuracy    <       0.00009389 Ry

     iteration # 15     ecut=    60.00 Ry     beta= 0.20
     Davidson diagonalization with overlap
     ethr =  4.27E-08,  avg # of iterations =  2.1

     negative rho (up, down):  6.541E-02 0.000E+00

     total cpu time spent up to now is      623.6 secs

     total energy              =   -9109.88280171 Ry
     estimated scf accuracy    <       0.00006052 Ry

     iteration # 16     ecut=    60.00 Ry     beta= 0.20
     Davidson diagonalization with overlap
     ethr =  2.75E-08,  avg # of iterations =  1.8

     negative rho (up, down):  6.542E-02 0.000E+00

     total cpu time spent up to now is      660.6 secs

     total energy              =   -9109.88280158 Ry
     estimated scf accuracy    <       0.00004193 Ry

     iteration # 17     ecut=    60.00 Ry     beta= 0.20
     Davidson diagonalization with overlap
     ethr =  1.91E-08,  avg # of iterations =  2.0

     negative rho (up, down):  6.545E-02 0.000E+00

     total cpu time spent up to now is      697.8 secs

     total energy              =   -9109.88280490 Ry
     estimated scf accuracy    <       0.00001963 Ry

     iteration # 18     ecut=    60.00 Ry     beta= 0.20
     Davidson diagonalization with overlap
     ethr =  8.92E-09,  avg # of iterations =  1.4

     negative rho (up, down):  6.542E-02 0.000E+00

     total cpu time spent up to now is      735.0 secs

     total energy              =   -9109.88280618 Ry
     estimated scf accuracy    <       0.00000434 Ry

     iteration # 19     ecut=    60.00 Ry     beta= 0.20
     Davidson diagonalization with overlap
     ethr =  1.97E-09,  avg # of iterations =  2.0

     negative rho (up, down):  6.538E-02 0.000E+00

     total cpu time spent up to now is      772.0 secs

     total energy              =   -9109.88280629 Ry
     estimated scf accuracy    <       0.00000252 Ry

     iteration # 20     ecut=    60.00 Ry     beta= 0.20
     Davidson diagonalization with overlap
     ethr =  1.15E-09,  avg # of iterations =  1.3

     negative rho (up, down):  6.537E-02 0.000E+00

     total cpu time spent up to now is      809.1 secs

     total energy              =   -9109.88280638 Ry
     estimated scf accuracy    <       0.00000190 Ry

     iteration # 21     ecut=    60.00 Ry     beta= 0.20
     Davidson diagonalization with overlap
     ethr =  8.62E-10,  avg # of iterations =  1.0

     negative rho (up, down):  6.532E-02 0.000E+00

     total cpu time spent up to now is      846.0 secs

     total energy              =   -9109.88280644 Ry
     estimated scf accuracy    <       0.00000058 Ry

     iteration # 22     ecut=    60.00 Ry     beta= 0.20
     Davidson diagonalization with overlap
     ethr =  2.66E-10,  avg # of iterations =  2.0

     negative rho (up, down):  6.532E-02 0.000E+00

     total cpu time spent up to now is      883.3 secs

     total energy              =   -9109.88280649 Ry
     estimated scf accuracy    <       0.00000028 Ry

     iteration # 23     ecut=    60.00 Ry     beta= 0.20
     Davidson diagonalization with overlap
     ethr =  1.26E-10,  avg # of iterations =  1.5

     negative rho (up, down):  6.530E-02 0.000E+00

     total cpu time spent up to now is      920.5 secs

     total energy              =   -9109.88280652 Ry
     estimated scf accuracy    <       0.00000016 Ry

     iteration # 24     ecut=    60.00 Ry     beta= 0.20
     Davidson diagonalization with overlap
     ethr =  7.18E-11,  avg # of iterations =  1.8

     negative rho (up, down):  6.529E-02 0.000E+00

     total cpu time spent up to now is      957.9 secs

     total energy              =   -9109.88280654 Ry
     estimated scf accuracy    <       0.00000008 Ry

     iteration # 25     ecut=    60.00 Ry     beta= 0.20
     Davidson diagonalization with overlap
     ethr =  3.53E-11,  avg # of iterations =  1.9

     negative rho (up, down):  6.528E-02 0.000E+00

     total cpu time spent up to now is      994.9 secs

     total energy              =   -9109.88280655 Ry
     estimated scf accuracy    <       0.00000002 Ry

     iteration # 26     ecut=    60.00 Ry     beta= 0.20
     Davidson diagonalization with overlap
     ethr =  1.01E-11,  avg # of iterations =  2.0

     negative rho (up, down):  6.528E-02 0.000E+00

     total cpu time spent up to now is     1032.0 secs

     total energy              =   -9109.88280655 Ry
     estimated scf accuracy    <       0.00000003 Ry

     iteration # 27     ecut=    60.00 Ry     beta= 0.20
     Davidson diagonalization with overlap
     ethr =  1.01E-11,  avg # of iterations =  1.0

     negative rho (up, down):  6.526E-02 0.000E+00

     total cpu time spent up to now is     1069.0 secs

     End of self-consistent calculation

          k = 0.0000 0.0000 0.0000 ( 87367 PWs)   bands (ev):

  -103.4095-103.4095-103.3996-103.3996-103.0162-103.0162 -68.8613 -68.8613
   -68.8610 -68.8610 -63.9866 -63.9864 -63.9832 -63.9832 -63.8165 -63.8164
   -63.7629 -63.7627 -63.6949 -63.6948 -63.6593 -63.6592 -63.5250 -63.5246
   -63.4721 -63.4720 -63.2968 -63.2967 -35.3407 -35.3401 -35.3398 -35.3392
   -35.2865 -35.2864 -35.2863 -35.2862 -35.2726 -35.2688 -35.2684 -35.2646
   -12.9331 -12.6418 -12.5428 -12.1064 -12.0473 -11.8739 -11.8099 -11.7817
   -11.6619 -11.4819  -6.1797  -5.9270  -5.7309  -5.6883  -5.4426  -5.3990
    -5.3722  -4.7652  -4.6303  -4.2264  -4.1354  -3.8510  -3.8028  -3.7846
    -3.7152  -3.7015  -3.6636  -3.6095  -3.3557  -3.3547  -3.0943  -2.9359
    -2.9348  -2.8083  -2.7346  -2.6669  -2.6247  -2.5909  -2.3980  -2.3609
    -2.2995  -2.1922  -2.1356  -2.1245  -2.0467  -1.9775  -1.9281  -1.8859
    -1.8047  -1.6909  -1.6673  -1.5190  -1.4472  -1.4339  -1.3901  -1.3333
    -1.3291  -1.3056  -1.2108  -1.1612  -1.1056  -0.9644  -0.8431  -0.8169
    -0.7716  -0.5917  -0.5046  -0.4139  -0.4068  -0.1428  -0.0298  -0.0177
     0.5775   0.7354   0.8866   0.9925   1.1203   1.2419   1.4367   1.4528
     1.4847   1.7271   2.0003   2.0159   2.1418   2.5186   2.9059   3.0264
     3.0649   3.1130   3.2645   3.3327

          k = 0.0000 0.4726 0.0000 ( 87327 PWs)   bands (ev):

  -103.4093-103.4093-103.3999-103.3998-103.0162-103.0161 -68.8612 -68.8612
   -68.8609 -68.8608 -63.9864 -63.9864 -63.9834 -63.9832 -63.8156 -63.8155
   -63.7650 -63.7650 -63.6931 -63.6930 -63.6597 -63.6596 -63.5248 -63.5247
   -63.4721 -63.4720 -63.2968 -63.2967 -35.3400 -35.3395 -35.3391 -35.3385
   -35.2920 -35.2919 -35.2917 -35.2916 -35.2719 -35.2683 -35.2678 -35.2642
   -12.8451 -12.5560 -12.4661 -12.0614 -11.9841 -11.8344 -11.7574 -11.7350
   -11.6134 -11.4512  -6.1017  -5.8526  -5.6444  -5.5938  -5.3819  -5.3282
    -5.2792  -4.6940  -4.5727  -4.1960  -4.1238  -3.9826  -3.8878  -3.8785
    -3.8181  -3.7701  -3.6738  -3.6387  -3.3543  -3.3165  -3.1304  -3.1199
    -2.8920  -2.8485  -2.8471  -2.7795  -2.7752  -2.7283  -2.6439  -2.3194
    -2.2807  -2.2706  -2.2318  -2.2084  -2.1386  -2.0509  -1.8788  -1.8778
    -1.8669  -1.8469  -1.7814  -1.7216  -1.6512  -1.5777  -1.4748  -1.4626
    -1.3597  -1.3567  -1.2423  -1.0695  -1.0544  -1.0171  -1.0114  -0.7768
    -0.6748  -0.6747  -0.6486  -0.5262  -0.2653  -0.2522   0.0543   0.2308
     0.4983   0.6593   0.8875   0.9931   1.0904   1.1380   1.3128   1.4970
     1.5445   1.6982   1.7755   1.9214   2.1797   2.4464   2.4968   2.5947
     2.6936   2.7973   3.2338   3.4337

          k = 0.0000 0.9451 0.0000 ( 87303 PWs)   bands (ev):

  -103.4086-103.4086-103.4005-103.4005-103.0162-103.0161 -68.8609 -68.8609
   -68.8606 -68.8606 -63.9863 -63.9862 -63.9836 -63.9835 -63.8130 -63.8129
   -63.7707 -63.7707 -63.6886 -63.6885 -63.6611 -63.6610 -63.5249 -63.5246
   -63.4721 -63.4721 -63.2968 -63.2967 -35.3383 -35.3378 -35.3373 -35.3369
   -35.3063 -35.3061 -35.3060 -35.3058 -35.2701 -35.2670 -35.2662 -35.2631
   -12.5936 -12.3125 -12.2516 -11.9348 -11.8183 -11.7355 -11.6046 -11.6014
   -11.4858 -11.3700  -5.9155  -5.6702  -5.4279  -5.3836  -5.2308  -5.1320
    -5.0476  -4.6407  -4.5490  -4.3110  -4.2091  -4.1628  -4.0795  -4.0634
    -3.9961  -3.9373  -3.8667  -3.6936  -3.6073  -3.5454  -3.2868  -3.2644
    -3.2599  -3.1062  -3.0642  -2.9557  -2.9041  -2.7867  -2.6820  -2.6663
    -2.5419  -2.4921  -2.4076  -2.3783  -2.2672  -2.1710  -2.0992  -2.0912
    -2.0393  -1.9019  -1.8252  -1.7627  -1.7570  -1.6073  -1.5709  -1.5702
    -1.5070  -1.4060  -1.3914  -1.1514  -1.0937  -1.0129  -1.0088  -0.9773
    -0.9067  -0.8663  -0.6991  -0.5530  -0.4600  -0.4133   0.3573   0.5097
     0.5376   0.8389   0.8614   0.9047   1.0267   1.0998   1.1262   1.2989
     1.6252   1.6384   1.6417   1.9345   2.0319   2.2458   2.2957   2.3665
     2.5374   2.5966   3.6495   3.8679

          k = 0.0000 1.4177 0.0000 ( 87277 PWs)   bands (ev):

  -103.4075-103.4075-103.4016-103.4016-103.0162-103.0161 -68.8605 -68.8605
   -68.8602 -68.8602 -63.9862 -63.9861 -63.9842 -63.9840 -63.8088 -63.8086
   -63.7783 -63.7782 -63.6829 -63.6827 -63.6633 -63.6632 -63.5249 -63.5247
   -63.4721 -63.4720 -63.2968 -63.2967 -35.3367 -35.3364 -35.3358 -35.3355
   -35.3233 -35.3232 -35.3228 -35.3226 -35.2676 -35.2654 -35.2641 -35.2618
   -12.2199 -11.9575 -11.9552 -11.7472 -11.6186 -11.6144 -11.4217 -11.3803
   -11.3387 -11.2691  -5.8310  -5.6083  -5.4505  -5.4222  -5.1021  -5.0792
    -4.9687  -4.8575  -4.7448  -4.5620  -4.4395  -4.3922  -4.2412  -4.1251
    -4.0883  -4.0117  -3.9146  -3.8493  -3.7565  -3.6017  -3.5038  -3.4818
    -3.3700  -3.2371  -3.1305  -3.1047  -3.0885  -2.9425  -2.7793  -2.7101
    -2.6982  -2.6864  -2.5373  -2.4888  -2.3394  -2.2124  -2.1828  -2.1685
    -2.1599  -2.0243  -1.9907  -1.9262  -1.8036  -1.7078  -1.6462  -1.5841
    -1.5005  -1.4911  -1.4845  -1.4041  -1.1783  -1.1684  -1.1590  -1.1513
    -0.9444  -0.9229  -0.8560  -0.6796  -0.6599  -0.6072   0.3634   0.4908
     0.6473   0.8515   0.9546   1.0415   1.1760   1.2129   1.2782   1.3134
     1.5842   1.6916   1.7004   2.0278   2.0838   2.2637   2.4437   2.4929
     2.6996   2.7749   3.4205   3.4612

          k = 0.0000 1.8903 0.0000 ( 87282 PWs)   bands (ev):

  -103.4062-103.4062-103.4029-103.4029-103.0162-103.0161 -68.8602 -68.8601
   -68.8600 -68.8599 -63.9858 -63.9857 -63.9847 -63.9845 -63.8033 -63.8032
   -63.7865 -63.7864 -63.6769 -63.6769 -63.6664 -63.6664 -63.5249 -63.5246
   -63.4721 -63.4720 -63.2970 -63.2969 -35.3411 -35.3409 -35.3405 -35.3402
   -35.3315 -35.3313 -35.3305 -35.3303 -35.2654 -35.2643 -35.2622 -35.2610
   -11.8114 -11.7031 -11.5916 -11.5274 -11.5117 -11.4436 -11.2874 -11.2768
   -11.1878 -11.1849  -6.0458  -5.9954  -5.9479  -5.9417  -5.2774  -5.2138
    -5.0463  -4.9848  -4.8041  -4.6875  -4.3958  -4.3023  -4.2921  -3.9999
    -3.9842  -3.8514  -3.7337  -3.7311  -3.6630  -3.6349  -3.4660  -3.4287
    -3.4132  -3.4110  -3.3072  -3.2843  -3.0506  -3.0316  -2.9182  -2.9024
    -2.6617  -2.6414  -2.5787  -2.5365  -2.2989  -2.2638  -2.2256  -2.2037
    -2.1756  -2.1332  -2.0839  -1.9727  -1.9480  -1.8544  -1.8004  -1.7084
    -1.5298  -1.5169  -1.4697  -1.4496  -1.3642  -1.2979  -1.2521  -1.2212
    -1.0777  -0.9948  -0.9657  -0.8396  -0.8077  -0.7740   0.2289   0.3167
     0.7985   0.9629   0.9868   1.0769   1.1249   1.5497   1.6121   1.6268
     1.6586   1.7126   1.9027   1.9402   2.0592   2.3434   2.5561   2.6638
     2.8873   3.0766   3.1302   3.1328

          k = 0.0000-2.3628 0.0000 ( 87370 PWs)   bands (ev):

  -103.4053-103.4053-103.4038-103.4038-103.0162-103.0161 -68.8600 -68.8600
   -68.8599 -68.8598 -63.9857 -63.9856 -63.9851 -63.9848 -63.7986 -63.7985
   -63.7924 -63.7922 -63.6733 -63.6732 -63.6694 -63.6693 -63.5249 -63.5248
   -63.4721 -63.4721 -63.2971 -63.2970 -35.3458 -35.3456 -35.3451 -35.3449
   -35.3316 -35.3314 -35.3306 -35.3304 -35.2643 -35.2642 -35.2611 -35.2610
   -11.6013 -11.6012 -11.4249 -11.3992 -11.3921 -11.3878 -11.3131 -11.2944
   -11.1420 -11.1371  -6.2062  -6.1903  -6.1879  -6.1780  -5.4395  -5.4075
    -5.0304  -5.0277  -4.8414  -4.8396  -4.2001  -4.1889  -4.0349  -4.0150
    -3.9093  -3.8827  -3.6327  -3.5925  -3.5341  -3.5296  -3.5223  -3.5043
    -3.5041  -3.4999  -3.2147  -3.2042  -3.1638  -3.1427  -3.0051  -2.9843
    -2.6110  -2.5934  -2.5468  -2.5065  -2.3023  -2.2785  -2.2436  -2.2210
    -2.2077  -2.2071  -1.9991  -1.9916  -1.9413  -1.9111  -1.9016  -1.8713
    -1.5471  -1.5395  -1.3966  -1.3926  -1.3891  -1.3879  -1.2860  -1.2808
    -1.1736  -1.1627  -1.0057  -0.9947  -0.8045  -0.7683   0.2209   0.2466
     0.8921   0.9105   1.0237   1.0310   1.2281   1.3093   1.6271   1.6399
     1.9285   1.9454   2.0471   2.0526   2.1224   2.1718   2.5105   2.5320
     2.8580   2.8941   3.1872   3.2791

          k =-0.5000 0.0000 0.0000 ( 87370 PWs)   bands (ev):

  -103.4095-103.4095-103.3996-103.3996-103.0162-103.0162 -68.8613 -68.8613
   -68.8610 -68.8610 -63.9866 -63.9866 -63.9832 -63.9832 -63.8164 -63.8164
   -63.7628 -63.7628 -63.6949 -63.6948 -63.6592 -63.6592 -63.5248 -63.5248
   -63.4721 -63.4720 -63.2968 -63.2967 -35.3405 -35.3405 -35.3394 -35.3394
   -35.2865 -35.2864 -35.2863 -35.2863 -35.2714 -35.2714 -35.2658 -35.2658
   -12.8454 -12.8453 -12.2463 -12.2463 -12.0470 -12.0469 -11.7412 -11.7412
   -11.5602 -11.5602  -6.0882  -6.0882  -5.7333  -5.7333  -5.3950  -5.3949
    -5.0219  -5.0218  -4.5716  -4.5715  -3.8830  -3.8830  -3.7592  -3.7592
    -3.6905  -3.6905  -3.5317  -3.5317  -3.3549  -3.3549  -3.2332  -3.2331
    -2.8865  -2.8864  -2.6847  -2.6847  -2.6003  -2.6003  -2.3219  -2.3219
    -2.2846  -2.2846  -2.0965  -2.0964  -2.0134  -2.0134  -1.8438  -1.8438
    -1.7920  -1.7919  -1.6306  -1.6305  -1.4022  -1.4022  -1.3435  -1.3434
    -1.3069  -1.3068  -1.2317  -1.2316  -1.0329  -1.0329  -0.7857  -0.7857
    -0.7079  -0.7079  -0.4439  -0.4439  -0.2897  -0.2896  -0.0276  -0.0276
     0.7321   0.7321   0.9025   0.9026   1.2354   1.2355   1.2613   1.2613
     1.6052   1.6052   2.0790   2.0790   2.2804   2.2805   3.0154   3.0155
     3.0777   3.0777   3.2541   3.2543

          k =-0.5000 0.4726 0.0000 ( 87408 PWs)   bands (ev):

  -103.4093-103.4093-103.3999-103.3999-103.0162-103.0161 -68.8612 -68.8612
   -68.8609 -68.8608 -63.9865 -63.9864 -63.9834 -63.9834 -63.8156 -63.8156
   -63.7650 -63.7650 -63.6932 -63.6932 -63.6597 -63.6597 -63.5249 -63.5248
   -63.4721 -63.4721 -63.2969 -63.2968 -35.3398 -35.3398 -35.3387 -35.3387
   -35.2919 -35.2919 -35.2917 -35.2917 -35.2708 -35.2708 -35.2653 -35.2653
   -12.7588 -12.7588 -12.1726 -12.1726 -12.0040 -12.0040 -11.6936 -11.6936
   -11.5229 -11.5228  -6.0091  -6.0090  -5.6446  -5.6446  -5.3194  -5.3193
    -4.9582  -4.9582  -4.5239  -4.5239  -3.9859  -3.9859  -3.8603  -3.8603
    -3.6759  -3.6758  -3.5334  -3.5333  -3.4765  -3.4765  -3.1483  -3.1483
    -3.0188  -3.0188  -2.7777  -2.7777  -2.7413  -2.7413  -2.4836  -2.4835
    -2.2563  -2.2563  -2.2094  -2.2094  -2.0276  -2.0276  -1.9484  -1.9484
    -1.8393  -1.8392  -1.7500  -1.7500  -1.6202  -1.6202  -1.4701  -1.4701
    -1.3228  -1.3228  -1.1869  -1.1868  -0.9985  -0.9985  -0.8682  -0.8682
    -0.7238  -0.7238  -0.6043  -0.6043  -0.2158  -0.2157   0.1344   0.1344
     0.5956   0.5956   1.0021   1.0021   1.1555   1.1555   1.2522   1.2522
     1.5577   1.5578   1.9288   1.9288   2.2150   2.2150   2.6117   2.6117
     2.7210   2.7210   3.3712   3.3713

          k =-0.5000 0.9451 0.0000 ( 87374 PWs)   bands (ev):

  -103.4086-103.4086-103.4005-103.4005-103.0162-103.0161 -68.8609 -68.8609
   -68.8606 -68.8606 -63.9864 -63.9864 -63.9838 -63.9838 -63.8130 -63.8130
   -63.7707 -63.7707 -63.6886 -63.6886 -63.6611 -63.6610 -63.5249 -63.5249
   -63.4721 -63.4721 -63.2968 -63.2968 -35.3381 -35.3381 -35.3371 -35.3371
   -35.3062 -35.3062 -35.3059 -35.3059 -35.2691 -35.2691 -35.2641 -35.2641
   -12.5121 -12.5120 -11.9685 -11.9685 -11.8853 -11.8853 -11.5687 -11.5687
   -11.4194 -11.4194  -5.8159  -5.8159  -5.4172  -5.4172  -5.1404  -5.1403
    -4.8842  -4.8842  -4.4512  -4.4512  -4.2118  -4.2118  -4.1196  -4.1195
    -3.7816  -3.7816  -3.6762  -3.6761  -3.6254  -3.6253  -3.3519  -3.3519
    -3.2405  -3.2405  -3.0038  -3.0038  -2.8192  -2.8191  -2.7210  -2.7210
    -2.5177  -2.5177  -2.4256  -2.4256  -2.1732  -2.1732  -2.0999  -2.0999
    -1.9766  -1.9765  -1.8167  -1.8167  -1.6456  -1.6456  -1.5588  -1.5587
    -1.3968  -1.3968  -1.3261  -1.3261  -1.1110  -1.1110  -1.0017  -1.0017
    -0.8886  -0.8886  -0.5581  -0.5581  -0.4093  -0.4093   0.4012   0.4012
     0.6805   0.6806   0.9120   0.9120   1.1483   1.1483   1.2464   1.2464
     1.4322   1.4322   1.7944   1.7944   2.1465   2.1465   2.3778   2.3778
     2.5247   2.5247   3.7261   3.7262

          k =-0.5000 1.4177 0.0000 ( 87274 PWs)   bands (ev):

  -103.4075-103.4075-103.4016-103.4016-103.0162-103.0161 -68.8605 -68.8605
   -68.8602 -68.8602 -63.9862 -63.9861 -63.9842 -63.9841 -63.8087 -63.8086
   -63.7782 -63.7782 -63.6828 -63.6828 -63.6632 -63.6632 -63.5249 -63.5248
   -63.4721 -63.4720 -63.2968 -63.2967 -35.3366 -35.3366 -35.3356 -35.3356
   -35.3233 -35.3233 -35.3227 -35.3227 -35.2668 -35.2668 -35.2626 -35.2626
   -12.1489 -12.1489 -11.7296 -11.7295 -11.6830 -11.6830 -11.4176 -11.4176
   -11.2822 -11.2822  -5.7407  -5.7407  -5.3394  -5.3394  -5.1959  -5.1959
    -4.9777  -4.9776  -4.5681  -4.5681  -4.4447  -4.4447  -4.1178  -4.1178
    -4.0165  -4.0164  -3.9182  -3.9182  -3.6701  -3.6700  -3.5467  -3.5467
    -3.2260  -3.2259  -3.1168  -3.1167  -3.0199  -3.0198  -2.8615  -2.8614
    -2.6234  -2.6234  -2.5564  -2.5564  -2.2763  -2.2763  -2.1663  -2.1663
    -2.1032  -2.1032  -1.9778  -1.9778  -1.6794  -1.6794  -1.6262  -1.6262
    -1.4802  -1.4802  -1.4617  -1.4617  -1.2260  -1.2260  -1.1203  -1.1203
    -0.9523  -0.9523  -0.7595  -0.7594  -0.6223  -0.6223   0.3980   0.3981
     0.8689   0.8690   1.0303   1.0303   1.1948   1.1948   1.2509   1.2510
     1.5700   1.5700   1.7826   1.7826   2.2867   2.2867   2.4838   2.4838
     2.6267   2.6267   3.5013   3.5016

          k =-0.5000 1.8903 0.0000 ( 87252 PWs)   bands (ev):

  -103.4062-103.4062-103.4029-103.4029-103.0162-103.0161 -68.8602 -68.8601
   -68.8600 -68.8600 -63.9858 -63.9858 -63.9845 -63.9845 -63.8033 -63.8033
   -63.7864 -63.7864 -63.6769 -63.6769 -63.6664 -63.6664 -63.5248 -63.5247
   -63.4720 -63.4720 -63.2970 -63.2969 -35.3410 -35.3410 -35.3403 -35.3403
   -35.3314 -35.3314 -35.3304 -35.3304 -35.2650 -35.2650 -35.2615 -35.2615
   -11.7680 -11.7679 -11.5673 -11.5673 -11.4454 -11.4453 -11.3033 -11.3032
   -11.1790 -11.1790  -6.0878  -6.0878  -5.8409  -5.8409  -5.3008  -5.3007
    -5.0203  -5.0202  -4.7397  -4.7397  -4.3653  -4.3653  -4.1473  -4.1472
    -3.9099  -3.9098  -3.7684  -3.7684  -3.5968  -3.5968  -3.4727  -3.4727
    -3.3762  -3.3762  -3.2328  -3.2328  -3.0499  -3.0499  -2.8987  -2.8987
    -2.7243  -2.7243  -2.5176  -2.5175  -2.3699  -2.3699  -2.2036  -2.2035
    -2.1491  -2.1490  -2.0646  -2.0646  -1.8016  -1.8015  -1.7512  -1.7512
    -1.5524  -1.5524  -1.4633  -1.4632  -1.3533  -1.3533  -1.1776  -1.1776
    -1.1012  -1.1011  -0.9043  -0.9042  -0.7738  -0.7738   0.2736   0.2736
     0.9048   0.9049   1.1036   1.1037   1.2842   1.2843   1.6198   1.6198
     1.6695   1.6695   1.9004   1.9004   2.1484   2.1484   2.7140   2.7140
     2.8184   2.8184   3.1774   3.1775

          k =-0.5000-2.3628 0.0000 ( 87256 PWs)   bands (ev):

  -103.4053-103.4053-103.4038-103.4038-103.0162-103.0161 -68.8600 -68.8600
   -68.8599 -68.8598 -63.9855 -63.9855 -63.9847 -63.9847 -63.7986 -63.7985
   -63.7923 -63.7923 -63.6731 -63.6731 -63.6692 -63.6692 -63.5247 -63.5247
   -63.4720 -63.4719 -63.2971 -63.2971 -35.3457 -35.3457 -35.3450 -35.3450
   -35.3315 -35.3315 -35.3305 -35.3305 -35.2642 -35.2642 -35.2610 -35.2610
   -11.6011 -11.6010 -11.4139 -11.4139 -11.3883 -11.3883 -11.3049 -11.3048
   -11.1383 -11.1383  -6.3020  -6.3020  -6.0498  -6.0497  -5.4495  -5.4494
    -5.0151  -5.0150  -4.8741  -4.8741  -4.1449  -4.1449  -4.1171  -4.1170
    -3.8148  -3.8148  -3.6578  -3.6578  -3.5841  -3.5840  -3.5128  -3.5128
    -3.4477  -3.4477  -3.3032  -3.3032  -2.9817  -2.9817  -2.8890  -2.8890
    -2.7580  -2.7579  -2.5015  -2.5015  -2.3566  -2.3566  -2.2518  -2.2518
    -2.2073  -2.2073  -1.9727  -1.9727  -1.9109  -1.9109  -1.8380  -1.8380
    -1.5785  -1.5785  -1.4103  -1.4103  -1.3942  -1.3941  -1.2302  -1.2302
    -1.2175  -1.2174  -0.9955  -0.9955  -0.7841  -0.7841   0.2401   0.2401
     0.9415   0.9415   1.0722   1.0723   1.1936   1.1936   1.6741   1.6741
     1.9540   1.9540   2.0298   2.0298   2.0582   2.0582   2.5949   2.5949
     2.7450   2.7450   3.4007   3.4020

     the Fermi energy is    -0.0890 ev

!    total energy              =   -9109.88280656 Ry
     total all-electron energy =     -9109.882807 Ry
     estimated scf accuracy    <          5.3E-09 Ry
     smearing contrib. (-TS)   =      -0.00000238 Ry
     internal energy E=F+TS    =   -9109.88280418 Ry

     The total energy is F=E-TS. E is the sum of the following terms:
     one-electron contribution =  -16125.79685376 Ry
     hartree contribution      =    7920.84299202 Ry
     xc contribution           =    -364.67536867 Ry
     ewald contribution        =    5727.43033630 Ry
     one-center paw contrib.   =   -6267.68391008 Ry

     convergence has been achieved in  27 iterations

     negative rho (up, down):  6.526E-02 0.000E+00

     Forces acting on atoms (cartesian axes, Ry/au):

     atom    1 type  1   force =    -0.00332419   -0.01042200    0.00480320
     atom    2 type  1   force =    -0.00332355    0.01041293   -0.00478552
     atom    3 type  1   force =     0.00332632   -0.01042859    0.00483388
     atom    4 type  1   force =     0.00329998    0.01042127   -0.00480639
     atom    5 type  2   force =     0.00227121   -0.01130531    0.00377974
     atom    6 type  2   force =     0.00231774    0.01131931   -0.00375932
     atom    7 type  2   force =    -0.00221188   -0.01130251    0.00377029
     atom    8 type  2   force =    -0.00226142    0.01132924   -0.00376978
     atom    9 type  2   force =     0.00000220   -0.00500698    0.00403791
     atom   10 type  2   force =     0.00003633    0.00501142   -0.00398342
     atom   11 type  3   force =    -0.00141973    0.00803954    0.00920174
     atom   12 type  3   force =    -0.00141647   -0.00804313   -0.00922653
     atom   13 type  3   force =     0.00139578   -0.00514689    0.00816181
     atom   14 type  3   force =     0.00139541    0.00514034   -0.00818661
     atom   15 type  3   force =     0.00144782    0.00803799    0.00919785
     atom   16 type  3   force =     0.00144755   -0.00804349   -0.00922277
     atom   17 type  3   force =    -0.00144022   -0.00514830    0.00816339
     atom   18 type  3   force =    -0.00144506    0.00514176   -0.00818456
     atom   19 type  3   force =    -0.00004959   -0.00494592    0.00618030
     atom   20 type  3   force =    -0.00004823    0.00493934   -0.00620522

     Total force =     0.048536     Total SCF correction =     0.000252


     Computing stress (Cartesian axis) and pressure


     negative rho (up, down):  6.526E-02 0.000E+00
          total   stress  (Ry/bohr**3)                   (kbar)     P=       -7.10
  -0.00001924   0.00000000  -0.00000000           -2.83        0.00       -0.00
   0.00000000  -0.00005814   0.00000565            0.00       -8.55        0.83
  -0.00000000   0.00000565  -0.00006747           -0.00        0.83       -9.92


     BFGS Geometry Optimization
     Energy error            =      0.0E+00 Ry
     Gradient error          =      1.1E-02 Ry/Bohr

     number of scf cycles    =   1
     number of bfgs steps    =   0

     energy             new  =   -9109.8828065574 Ry

     new trust radius        =       0.0123228530 bohr
     new conv_thr            =       0.0000000100 Ry


ATOMIC_POSITIONS (angstrom)
Ta              15.3900817395        0.9094084782       12.4463819776
Ta               6.5697917681        2.7502799656       12.5894639437
Ta               2.2669158275        0.9094049929       12.4462239406
Ta              11.0871996187        2.7502843778       12.5896130549
Ni              12.8656100316        0.9089410507       11.7636897493
Ni               4.0453266192        2.7507596036       13.2721546051
Ni               4.7912962484        0.9089425353       11.7634181080
Ni              13.6115639214        2.7507648573       13.2724061296
Ni               8.8283478302        0.9122739832       12.3703423668
Ni               0.0080961265        2.7474216097       12.6655018762
Te              14.2122910852        2.7490240235       10.5401261041
Te               5.3919722936        0.9106673219       14.4956896366
Te              10.5961717324        0.9121999473       10.5236529195
Te               1.7758885024        2.7474898297       14.5121627901
Te               3.4444548461        2.7490232017       10.5399008339
Te              12.2647555484        0.9106671314       14.4959120670
Te               7.0608562896        0.9121991994       10.5234911536
Te              15.8811372161        2.7474905850       14.5123360465
Te               0.0082726822        0.9123062941       10.8408895399
Te               8.8285324362        2.7473834654       14.1948941570



     Writing config-only to output data dir /ddn/data/physics/eamoujaes/2D-Ta2Ni3Te5/ELASTIC/C22/OUT/ta2ni3te5.save/ :
     XML data file
     NEW-OLD atomic charge density approx. for the potential

     negative rho (up, down):  6.555E-02 0.000E+00

     total cpu time spent up to now is     1164.4 secs

     Self-consistent Calculation

     iteration #  1     ecut=    60.00 Ry     beta= 0.20
     Davidson diagonalization with overlap
     ethr =  1.00E-06,  avg # of iterations =  6.0

     negative rho (up, down):  6.551E-02 0.000E+00

     total cpu time spent up to now is     1204.0 secs

     total energy              =   -9109.88476799 Ry
     estimated scf accuracy    <       0.00040860 Ry

     iteration #  2     ecut=    60.00 Ry     beta= 0.20
     Davidson diagonalization with overlap
     ethr =  1.86E-07,  avg # of iterations =  3.3

     negative rho (up, down):  6.550E-02 0.000E+00

     total cpu time spent up to now is     1241.2 secs

     total energy              =   -9109.88481346 Ry
     estimated scf accuracy    <       0.00135897 Ry

     iteration #  3     ecut=    60.00 Ry     beta= 0.20
     Davidson diagonalization with overlap
     ethr =  1.86E-07,  avg # of iterations =  1.9

     negative rho (up, down):  6.548E-02 0.000E+00

     total cpu time spent up to now is     1278.1 secs

     total energy              =   -9109.88488057 Ry
     estimated scf accuracy    <       0.00011619 Ry

     iteration #  4     ecut=    60.00 Ry     beta= 0.20
     Davidson diagonalization with overlap
     ethr =  5.28E-08,  avg # of iterations =  2.0

     negative rho (up, down):  6.543E-02 0.000E+00

     total cpu time spent up to now is     1315.3 secs

     total energy              =   -9109.88488127 Ry
     estimated scf accuracy    <       0.00007709 Ry

     iteration #  5     ecut=    60.00 Ry     beta= 0.20
     Davidson diagonalization with overlap
     ethr =  3.50E-08,  avg # of iterations =  2.0

     negative rho (up, down):  6.541E-02 0.000E+00

     total cpu time spent up to now is     1352.3 secs

     total energy              =   -9109.88488934 Ry
     estimated scf accuracy    <       0.00000808 Ry

     iteration #  6     ecut=    60.00 Ry     beta= 0.20
     Davidson diagonalization with overlap
     ethr =  3.67E-09,  avg # of iterations =  4.0

     negative rho (up, down):  6.540E-02 0.000E+00

     total cpu time spent up to now is     1389.8 secs

     total energy              =   -9109.88489102 Ry
     estimated scf accuracy    <       0.00003573 Ry

     iteration #  7     ecut=    60.00 Ry     beta= 0.20
     Davidson diagonalization with overlap
     ethr =  3.67E-09,  avg # of iterations =  1.8

     negative rho (up, down):  6.538E-02 0.000E+00

     total cpu time spent up to now is     1426.9 secs

     total energy              =   -9109.88489411 Ry
     estimated scf accuracy    <       0.00000197 Ry

     iteration #  8     ecut=    60.00 Ry     beta= 0.20
     Davidson diagonalization with overlap
     ethr =  8.97E-10,  avg # of iterations =  2.0

     negative rho (up, down):  6.535E-02 0.000E+00

     total cpu time spent up to now is     1464.2 secs

     total energy              =   -9109.88489529 Ry
     estimated scf accuracy    <       0.00000083 Ry

     iteration #  9     ecut=    60.00 Ry     beta= 0.20
     Davidson diagonalization with overlap
     ethr =  3.75E-10,  avg # of iterations =  2.8

     negative rho (up, down):  6.535E-02 0.000E+00

     total cpu time spent up to now is     1501.7 secs

     total energy              =   -9109.88489562 Ry
     estimated scf accuracy    <       0.00000063 Ry

     iteration # 10     ecut=    60.00 Ry     beta= 0.20
     Davidson diagonalization with overlap
     ethr =  2.88E-10,  avg # of iterations =  2.0

     negative rho (up, down):  6.535E-02 0.000E+00

     total cpu time spent up to now is     1539.2 secs

     total energy              =   -9109.88489572 Ry
     estimated scf accuracy    <       0.00000012 Ry

     iteration # 11     ecut=    60.00 Ry     beta= 0.20
     Davidson diagonalization with overlap
     ethr =  5.54E-11,  avg # of iterations =  2.8

     negative rho (up, down):  6.534E-02 0.000E+00

     total cpu time spent up to now is     1576.6 secs

     total energy              =   -9109.88489577 Ry
     estimated scf accuracy    <       0.00000009 Ry

     iteration # 12     ecut=    60.00 Ry     beta= 0.20
     Davidson diagonalization with overlap
     ethr =  4.19E-11,  avg # of iterations =  1.3

     negative rho (up, down):  6.534E-02 0.000E+00

     total cpu time spent up to now is     1613.4 secs

     total energy              =   -9109.88489580 Ry
     estimated scf accuracy    <       0.00000003 Ry

     iteration # 13     ecut=    60.00 Ry     beta= 0.20
     Davidson diagonalization with overlap
     ethr =  1.57E-11,  avg # of iterations =  3.5

     negative rho (up, down):  6.534E-02 0.000E+00

     total cpu time spent up to now is     1650.7 secs

     End of self-consistent calculation

          k = 0.0000 0.0000 0.0000 ( 87367 PWs)   bands (ev):

  -103.4163-103.4163-103.4063-103.4063-103.0171-103.0171 -68.8582 -68.8582
   -68.8579 -68.8579 -63.9939 -63.9938 -63.9906 -63.9906 -63.8245 -63.8244
   -63.7702 -63.7701 -63.7006 -63.7005 -63.6648 -63.6647 -63.5243 -63.5239
   -63.4727 -63.4726 -63.3000 -63.2999 -35.3387 -35.3381 -35.3378 -35.3371
   -35.2852 -35.2852 -35.2850 -35.2850 -35.2710 -35.2672 -35.2669 -35.2630
   -12.9454 -12.6564 -12.5510 -12.1110 -12.0565 -11.8767 -11.8190 -11.7887
   -11.6674 -11.4889  -6.1847  -5.9336  -5.7379  -5.6988  -5.4502  -5.4025
    -5.3814  -4.7775  -4.6404  -4.2332  -4.1484  -3.8517  -3.8032  -3.7872
    -3.7424  -3.7271  -3.6763  -3.6147  -3.3737  -3.3708  -3.1050  -2.9475
    -2.9436  -2.8157  -2.7398  -2.6693  -2.6352  -2.6049  -2.4039  -2.3625
    -2.3006  -2.1977  -2.1410  -2.1360  -2.0528  -1.9787  -1.9288  -1.8917
    -1.8056  -1.6888  -1.6623  -1.5183  -1.4593  -1.4427  -1.3912  -1.3512
    -1.3257  -1.3237  -1.2108  -1.1733  -1.1026  -0.9603  -0.8467  -0.8280
    -0.7799  -0.5914  -0.5090  -0.4139  -0.4077  -0.1440  -0.0299  -0.0150
     0.5704   0.7434   0.8878   1.0001   1.1290   1.2439   1.4494   1.4496
     1.4824   1.7278   2.0024   2.0261   2.1438   2.5216   2.9145   3.0430
     3.0783   3.1334   3.2724   3.3535

          k = 0.0000 0.4726 0.0000 ( 87327 PWs)   bands (ev):

  -103.4161-103.4160-103.4065-103.4065-103.0171-103.0171 -68.8581 -68.8581
   -68.8578 -68.8578 -63.9938 -63.9938 -63.9908 -63.9906 -63.8235 -63.8234
   -63.7724 -63.7723 -63.6987 -63.6986 -63.6652 -63.6651 -63.5242 -63.5240
   -63.4727 -63.4726 -63.3000 -63.2999 -35.3380 -35.3374 -35.3370 -35.3365
   -35.2908 -35.2907 -35.2905 -35.2904 -35.2704 -35.2667 -35.2663 -35.2626
   -12.8571 -12.5705 -12.4742 -12.0662 -11.9930 -11.8378 -11.7668 -11.7417
   -11.6189 -11.4585  -6.1070  -5.8594  -5.6516  -5.6047  -5.3894  -5.3314
    -5.2882  -4.7061  -4.5835  -4.2034  -4.1363  -3.9908  -3.8933  -3.8919
    -3.8331  -3.7914  -3.6834  -3.6454  -3.3677  -3.3284  -3.1416  -3.1302
    -2.8976  -2.8579  -2.8553  -2.7862  -2.7820  -2.7402  -2.6522  -2.3245
    -2.2889  -2.2736  -2.2352  -2.2154  -2.1428  -2.0505  -1.8899  -1.8812
    -1.8660  -1.8505  -1.7832  -1.7267  -1.6639  -1.5808  -1.4792  -1.4686
    -1.3651  -1.3615  -1.2427  -1.0721  -1.0553  -1.0182  -1.0146  -0.7782
    -0.6794  -0.6790  -0.6479  -0.5317  -0.2639  -0.2549   0.0521   0.2302
     0.5017   0.6597   0.8932   1.0002   1.0984   1.1401   1.3214   1.4954
     1.5445   1.7032   1.7775   1.9241   2.1874   2.4550   2.5020   2.6080
     2.7008   2.8107   3.2406   3.4378

          k = 0.0000 0.9451 0.0000 ( 87303 PWs)   bands (ev):

  -103.4154-103.4153-103.4072-103.4072-103.0171-103.0171 -68.8578 -68.8578
   -68.8576 -68.8575 -63.9937 -63.9936 -63.9910 -63.9909 -63.8209 -63.8208
   -63.7781 -63.7781 -63.6942 -63.6942 -63.6666 -63.6665 -63.5242 -63.5239
   -63.4727 -63.4727 -63.3000 -63.2999 -35.3361 -35.3357 -35.3352 -35.3347
   -35.3052 -35.3050 -35.3050 -35.3047 -35.2684 -35.2653 -35.2646 -35.2615
   -12.6049 -12.3263 -12.2593 -11.9401 -11.8267 -11.7406 -11.6147 -11.6071
   -11.4913 -11.3781  -5.9222  -5.6774  -5.4359  -5.3961  -5.2376  -5.1351
    -5.0565  -4.6565  -4.5609  -4.3226  -4.2232  -4.1744  -4.0884  -4.0773
    -4.0016  -3.9542  -3.8739  -3.6983  -3.6130  -3.5563  -3.2973  -3.2761
    -3.2716  -3.1137  -3.0702  -2.9617  -2.9116  -2.7985  -2.6913  -2.6668
    -2.5469  -2.4964  -2.4158  -2.3838  -2.2737  -2.1787  -2.1057  -2.0978
    -2.0446  -1.9053  -1.8337  -1.7644  -1.7594  -1.6138  -1.5739  -1.5737
    -1.5111  -1.4121  -1.3998  -1.1516  -1.0965  -1.0138  -1.0066  -0.9700
    -0.9082  -0.8726  -0.7020  -0.5551  -0.4602  -0.4145   0.3556   0.5112
     0.5363   0.8414   0.8685   0.9075   1.0350   1.1069   1.1284   1.3012
     1.6277   1.6383   1.6473   1.9384   2.0368   2.2533   2.3054   2.3725
     2.5479   2.6011   3.6566   3.8714

          k = 0.0000 1.4177 0.0000 ( 87277 PWs)   bands (ev):

  -103.4143-103.4142-103.4083-103.4083-103.0171-103.0171 -68.8574 -68.8574
   -68.8572 -68.8571 -63.9936 -63.9934 -63.9917 -63.9915 -63.8165 -63.8164
   -63.7859 -63.7858 -63.6884 -63.6882 -63.6688 -63.6688 -63.5243 -63.5241
   -63.4728 -63.4726 -63.3000 -63.2999 -35.3343 -35.3340 -35.3334 -35.3331
   -35.3226 -35.3224 -35.3222 -35.3219 -35.2660 -35.2637 -35.2624 -35.2602
   -12.2300 -11.9703 -11.9627 -11.7530 -11.6256 -11.6230 -11.4264 -11.3905
   -11.3443 -11.2783  -5.8407  -5.6171  -5.4651  -5.4341  -5.1085  -5.0938
    -4.9783  -4.8684  -4.7540  -4.5723  -4.4484  -4.4032  -4.2452  -4.1324
    -4.0999  -4.0224  -3.9217  -3.8556  -3.7605  -3.6071  -3.5152  -3.4909
    -3.3807  -3.2392  -3.1372  -3.1068  -3.0958  -2.9440  -2.7921  -2.7176
    -2.7056  -2.6926  -2.5445  -2.4993  -2.3483  -2.2191  -2.1869  -2.1766
    -2.1671  -2.0281  -1.9988  -1.9346  -1.8094  -1.7116  -1.6523  -1.5899
    -1.5066  -1.4945  -1.4899  -1.4054  -1.1801  -1.1682  -1.1603  -1.1534
    -0.9414  -0.9278  -0.8575  -0.6830  -0.6582  -0.6082   0.3643   0.4902
     0.6483   0.8538   0.9631   1.0437   1.1791   1.2176   1.2857   1.3110
     1.5881   1.6946   1.7039   2.0331   2.0846   2.2681   2.4546   2.4985
     2.7096   2.7826   3.4348   3.4667

          k = 0.0000 1.8903 0.0000 ( 87282 PWs)   bands (ev):

  -103.4129-103.4129-103.4097-103.4096-103.0171-103.0170 -68.8571 -68.8571
   -68.8570 -68.8569 -63.9932 -63.9930 -63.9921 -63.9920 -63.8108 -63.8107
   -63.7944 -63.7943 -63.6824 -63.6823 -63.6721 -63.6721 -63.5243 -63.5240
   -63.4727 -63.4726 -63.3002 -63.3001 -35.3391 -35.3389 -35.3385 -35.3383
   -35.3304 -35.3302 -35.3294 -35.3292 -35.2638 -35.2626 -35.2605 -35.2593
   -11.8200 -11.7110 -11.6030 -11.5359 -11.5175 -11.4533 -11.2915 -11.2827
   -11.1979 -11.1948  -6.0582  -6.0087  -5.9628  -5.9541  -5.2848  -5.2237
    -5.0572  -4.9981  -4.8133  -4.6992  -4.4002  -4.3115  -4.2984  -4.0019
    -3.9897  -3.8590  -3.7396  -3.7334  -3.6670  -3.6401  -3.4718  -3.4343
    -3.4203  -3.4174  -3.3084  -3.2891  -3.0595  -3.0428  -2.9261  -2.9110
    -2.6685  -2.6521  -2.5860  -2.5491  -2.3074  -2.2657  -2.2388  -2.2137
    -2.1825  -2.1413  -2.0883  -1.9816  -1.9553  -1.8598  -1.8094  -1.7146
    -1.5320  -1.5210  -1.4734  -1.4541  -1.3666  -1.3006  -1.2558  -1.2234
    -1.0795  -0.9973  -0.9703  -0.8385  -0.8050  -0.7764   0.2299   0.3158
     0.8006   0.9713   0.9907   1.0838   1.1266   1.5540   1.6162   1.6302
     1.6560   1.7128   1.9032   1.9464   2.0552   2.3468   2.5572   2.6730
     2.8999   3.0900   3.1387   3.1401

          k = 0.0000-2.3628 0.0000 ( 87370 PWs)   bands (ev):

  -103.4118-103.4118-103.4108-103.4107-103.0171-103.0170 -68.8570 -68.8569
   -68.8569 -68.8568 -63.9930 -63.9929 -63.9926 -63.9923 -63.8052 -63.8051
   -63.8012 -63.8010 -63.6783 -63.6782 -63.6754 -63.6754 -63.5242 -63.5242
   -63.4728 -63.4727 -63.3003 -63.3002 -35.3441 -35.3440 -35.3435 -35.3433
   -35.3301 -35.3300 -35.3292 -35.3290 -35.2626 -35.2625 -35.2595 -35.2593
   -11.6093 -11.6092 -11.4307 -11.4081 -11.4057 -11.3998 -11.3137 -11.2993
   -11.1516 -11.1478  -6.2174  -6.2045  -6.2019  -6.1935  -5.4447  -5.4191
    -5.0403  -5.0364  -4.8529  -4.8525  -4.2026  -4.1944  -4.0412  -4.0257
    -3.9115  -3.8909  -3.6295  -3.5975  -3.5386  -3.5312  -3.5234  -3.5101
    -3.5072  -3.5021  -3.2200  -3.2085  -3.1772  -3.1566  -3.0142  -2.9998
    -2.6156  -2.6035  -2.5528  -2.5222  -2.3013  -2.2813  -2.2615  -2.2292
    -2.2256  -2.2179  -2.0026  -1.9959  -1.9434  -1.9255  -1.9022  -1.8818
    -1.5494  -1.5457  -1.3981  -1.3944  -1.3932  -1.3923  -1.2894  -1.2862
    -1.1770  -1.1700  -1.0042  -0.9962  -0.7989  -0.7711   0.2245   0.2426
     0.8964   0.9111   1.0333   1.0388   1.2410   1.3015   1.6303   1.6403
     1.9338   1.9448   2.0439   2.0475   2.1288   2.1692   2.5158   2.5339
     2.8741   2.9022   3.2037   3.2723

          k =-0.5000 0.0000 0.0000 ( 87370 PWs)   bands (ev):

  -103.4163-103.4163-103.4063-103.4063-103.0171-103.0171 -68.8582 -68.8582
   -68.8579 -68.8579 -63.9940 -63.9940 -63.9906 -63.9906 -63.8244 -63.8244
   -63.7702 -63.7701 -63.7005 -63.7005 -63.6647 -63.6647 -63.5242 -63.5241
   -63.4727 -63.4726 -63.3000 -63.2999 -35.3385 -35.3384 -35.3374 -35.3373
   -35.2852 -35.2852 -35.2850 -35.2850 -35.2699 -35.2698 -35.2642 -35.2641
   -12.8577 -12.8577 -12.2566 -12.2566 -12.0522 -12.0522 -11.7458 -11.7458
   -11.5681 -11.5680  -6.0942  -6.0941  -5.7407  -5.7406  -5.4018  -5.4018
    -5.0326  -5.0326  -4.5818  -4.5818  -3.8867  -3.8867  -3.7645  -3.7644
    -3.7140  -3.7139  -3.5415  -3.5415  -3.3714  -3.3714  -3.2415  -3.2415
    -2.8971  -2.8971  -2.6892  -2.6892  -2.6113  -2.6113  -2.3231  -2.3231
    -2.2938  -2.2938  -2.1037  -2.1037  -2.0189  -2.0189  -1.8433  -1.8433
    -1.7909  -1.7908  -1.6293  -1.6292  -1.4073  -1.4073  -1.3562  -1.3562
    -1.3205  -1.3204  -1.2330  -1.2330  -1.0298  -1.0297  -0.7952  -0.7951
    -0.7103  -0.7103  -0.4454  -0.4454  -0.2902  -0.2902  -0.0276  -0.0276
     0.7297   0.7298   0.9101   0.9102   1.2358   1.2358   1.2715   1.2715
     1.6058   1.6059   2.0808   2.0808   2.2859   2.2860   3.0319   3.0319
     3.0864   3.0864   3.2740   3.2741

          k =-0.5000 0.4726 0.0000 ( 87408 PWs)   bands (ev):

  -103.4161-103.4160-103.4065-103.4065-103.0171-103.0171 -68.8581 -68.8581
   -68.8578 -68.8578 -63.9939 -63.9938 -63.9908 -63.9908 -63.8236 -63.8236
   -63.7724 -63.7723 -63.6988 -63.6988 -63.6652 -63.6652 -63.5242 -63.5241
   -63.4728 -63.4727 -63.3000 -63.3000 -35.3378 -35.3377 -35.3367 -35.3366
   -35.2908 -35.2907 -35.2905 -35.2905 -35.2693 -35.2692 -35.2637 -35.2637
   -12.7709 -12.7709 -12.1828 -12.1827 -12.0095 -12.0094 -11.6982 -11.6982
   -11.5309 -11.5309  -6.0153  -6.0153  -5.6521  -5.6521  -5.3259  -5.3259
    -4.9692  -4.9691  -4.5343  -4.5343  -3.9933  -3.9932  -3.8754  -3.8754
    -3.6883  -3.6883  -3.5442  -3.5441  -3.4871  -3.4871  -3.1581  -3.1581
    -3.0282  -3.0282  -2.7846  -2.7846  -2.7505  -2.7504  -2.4922  -2.4922
    -2.2604  -2.2604  -2.2147  -2.2147  -2.0344  -2.0344  -1.9491  -1.9490
    -1.8418  -1.8418  -1.7557  -1.7557  -1.6248  -1.6248  -1.4758  -1.4758
    -1.3293  -1.3292  -1.1902  -1.1901  -0.9963  -0.9962  -0.8709  -0.8708
    -0.7283  -0.7283  -0.6078  -0.6077  -0.2163  -0.2163   0.1328   0.1328
     0.5976   0.5977   1.0084   1.0084   1.1610   1.1610   1.2569   1.2570
     1.5589   1.5589   1.9307   1.9307   2.2222   2.2223   2.6198   2.6198
     2.7331   2.7332   3.3787   3.3787

          k =-0.5000 0.9451 0.0000 ( 87374 PWs)   bands (ev):

  -103.4154-103.4153-103.4072-103.4072-103.0171-103.0171 -68.8578 -68.8578
   -68.8576 -68.8575 -63.9938 -63.9937 -63.9912 -63.9912 -63.8209 -63.8208
   -63.7781 -63.7781 -63.6942 -63.6942 -63.6666 -63.6666 -63.5243 -63.5242
   -63.4728 -63.4727 -63.3000 -63.3000 -35.3360 -35.3359 -35.3350 -35.3349
   -35.3052 -35.3051 -35.3049 -35.3048 -35.2675 -35.2674 -35.2625 -35.2625
   -12.5234 -12.5234 -11.9783 -11.9783 -11.8912 -11.8912 -11.5737 -11.5736
   -11.4279 -11.4279  -5.8231  -5.8231  -5.4255  -5.4254  -5.1462  -5.1461
    -4.8971  -4.8971  -4.4633  -4.4633  -4.2214  -4.2214  -4.1337  -4.1337
    -3.7933  -3.7932  -3.6854  -3.6853  -3.6308  -3.6307  -3.3618  -3.3617
    -3.2490  -3.2490  -3.0129  -3.0129  -2.8265  -2.8264  -2.7270  -2.7270
    -2.5231  -2.5231  -2.4319  -2.4319  -2.1801  -2.1801  -2.1058  -2.1058
    -1.9832  -1.9832  -1.8198  -1.8197  -1.6490  -1.6489  -1.5634  -1.5634
    -1.4034  -1.4034  -1.3288  -1.3288  -1.1133  -1.1133  -1.0007  -1.0007
    -0.8899  -0.8899  -0.5586  -0.5586  -0.4103  -0.4102   0.3991   0.3992
     0.6831   0.6832   0.9163   0.9163   1.1563   1.1563   1.2495   1.2496
     1.4337   1.4337   1.7984   1.7984   2.1524   2.1524   2.3883   2.3884
     2.5287   2.5287   3.7340   3.7340

          k =-0.5000 1.4177 0.0000 ( 87274 PWs)   bands (ev):

  -103.4143-103.4142-103.4083-103.4083-103.0171-103.0171 -68.8574 -68.8574
   -68.8572 -68.8571 -63.9935 -63.9935 -63.9916 -63.9916 -63.8164 -63.8164
   -63.7858 -63.7858 -63.6883 -63.6883 -63.6688 -63.6688 -63.5242 -63.5242
   -63.4727 -63.4726 -63.3000 -63.2999 -35.3342 -35.3341 -35.3333 -35.3332
   -35.3226 -35.3225 -35.3221 -35.3220 -35.2652 -35.2651 -35.2610 -35.2610
   -12.1591 -12.1591 -11.7380 -11.7380 -11.6908 -11.6908 -11.4232 -11.4232
   -11.2909 -11.2909  -5.7505  -5.7505  -5.3529  -5.3529  -5.2058  -5.2057
    -4.9866  -4.9866  -4.5789  -4.5788  -4.4546  -4.4546  -4.1235  -4.1235
    -4.0242  -4.0242  -3.9283  -3.9283  -3.6781  -3.6781  -3.5534  -3.5533
    -3.2299  -3.2298  -3.1282  -3.1282  -3.0202  -3.0202  -2.8705  -2.8704
    -2.6298  -2.6298  -2.5659  -2.5659  -2.2842  -2.2842  -2.1724  -2.1724
    -2.1101  -2.1101  -1.9849  -1.9849  -1.6847  -1.6847  -1.6318  -1.6317
    -1.4856  -1.4856  -1.4645  -1.4645  -1.2281  -1.2281  -1.1214  -1.1214
    -0.9518  -0.9517  -0.7614  -0.7614  -0.6229  -0.6228   0.3978   0.3978
     0.8728   0.8729   1.0334   1.0334   1.1996   1.1996   1.2510   1.2510
     1.5752   1.5753   1.7865   1.7865   2.2912   2.2912   2.4900   2.4900
     2.6350   2.6351   3.5125   3.5129

          k =-0.5000 1.8903 0.0000 ( 87252 PWs)   bands (ev):

  -103.4129-103.4129-103.4097-103.4096-103.0171-103.0170 -68.8571 -68.8571
   -68.8570 -68.8569 -63.9931 -63.9931 -63.9920 -63.9920 -63.8108 -63.8107
   -63.7943 -63.7943 -63.6823 -63.6823 -63.6721 -63.6721 -63.5241 -63.5241
   -63.4727 -63.4726 -63.3002 -63.3001 -35.3391 -35.3390 -35.3384 -35.3384
   -35.3303 -35.3303 -35.3294 -35.3293 -35.2633 -35.2632 -35.2599 -35.2598
   -11.7765 -11.7765 -11.5762 -11.5762 -11.4543 -11.4542 -11.3082 -11.3081
   -11.1888 -11.1887  -6.1007  -6.1007  -5.8547  -5.8546  -5.3094  -5.3094
    -5.0322  -5.0321  -4.7493  -4.7493  -4.3720  -4.3720  -4.1534  -4.1534
    -3.9137  -3.9136  -3.7745  -3.7744  -3.6019  -3.6019  -3.4809  -3.4809
    -3.3775  -3.3775  -3.2376  -3.2375  -3.0583  -3.0583  -2.9095  -2.9094
    -2.7316  -2.7316  -2.5274  -2.5274  -2.3792  -2.3792  -2.2091  -2.2091
    -2.1592  -2.1592  -2.0717  -2.0717  -1.8103  -1.8103  -1.7563  -1.7562
    -1.5556  -1.5556  -1.4668  -1.4668  -1.3566  -1.3566  -1.1795  -1.1795
    -1.1035  -1.1035  -0.9072  -0.9071  -0.7728  -0.7728   0.2737   0.2737
     0.9097   0.9098   1.1075   1.1075   1.2883   1.2884   1.6225   1.6225
     1.6691   1.6691   1.9045   1.9045   2.1479   2.1479   2.7259   2.7259
     2.8213   2.8213   3.1874   3.1874

          k =-0.5000-2.3628 0.0000 ( 87256 PWs)   bands (ev):

  -103.4118-103.4118-103.4108-103.4107-103.0171-103.0170 -68.8570 -68.8569
   -68.8569 -68.8568 -63.9928 -63.9928 -63.9923 -63.9923 -63.8052 -63.8051
   -63.8011 -63.8011 -63.6781 -63.6781 -63.6753 -63.6752 -63.5241 -63.5240
   -63.4726 -63.4725 -63.3003 -63.3002 -35.3441 -35.3440 -35.3434 -35.3433
   -35.3301 -35.3300 -35.3291 -35.3290 -35.2626 -35.2625 -35.2594 -35.2593
   -11.6091 -11.6090 -11.4212 -11.4212 -11.4008 -11.4007 -11.3081 -11.3081
   -11.1484 -11.1484  -6.3155  -6.3154  -6.0640  -6.0639  -5.4575  -5.4575
    -5.0255  -5.0255  -4.8848  -4.8848  -4.1485  -4.1485  -4.1250  -4.1250
    -3.8197  -3.8197  -3.6612  -3.6612  -3.5873  -3.5872  -3.5164  -3.5163
    -3.4503  -3.4503  -3.3133  -3.3132  -2.9882  -2.9882  -2.8979  -2.8978
    -2.7697  -2.7697  -2.5119  -2.5118  -2.3642  -2.3642  -2.2592  -2.2591
    -2.2214  -2.2214  -1.9753  -1.9752  -1.9188  -1.9188  -1.8449  -1.8448
    -1.5829  -1.5829  -1.4129  -1.4129  -1.3973  -1.3972  -1.2351  -1.2351
    -1.2209  -1.2209  -0.9969  -0.9969  -0.7827  -0.7826   0.2399   0.2400
     0.9456   0.9457   1.0779   1.0779   1.1978   1.1978   1.6753   1.6753
     1.9562   1.9562   2.0336   2.0337   2.0515   2.0516   2.6065   2.6065
     2.7488   2.7488   3.4163   3.4172

     the Fermi energy is    -0.0895 ev

!    total energy              =   -9109.88489580 Ry
     total all-electron energy =     -9109.884896 Ry
     estimated scf accuracy    <          9.3E-09 Ry
     smearing contrib. (-TS)   =      -0.00000216 Ry
     internal energy E=F+TS    =   -9109.88489364 Ry

     The total energy is F=E-TS. E is the sum of the following terms:
     one-electron contribution =  -16136.60671475 Ry
     hartree contribution      =    7926.22881086 Ry
     xc contribution           =    -364.70459344 Ry
     ewald contribution        =    5732.88348500 Ry
     one-center paw contrib.   =   -6267.68588131 Ry

     convergence has been achieved in  13 iterations

     negative rho (up, down):  6.534E-02 0.000E+00

     Forces acting on atoms (cartesian axes, Ry/au):

     atom    1 type  1   force =    -0.00226143   -0.00787531    0.00349412
     atom    2 type  1   force =    -0.00226935    0.00787564   -0.00350581
     atom    3 type  1   force =     0.00224743   -0.00787651    0.00351562
     atom    4 type  1   force =     0.00225498    0.00787729   -0.00353639
     atom    5 type  2   force =     0.00205141   -0.00797387    0.00313897
     atom    6 type  2   force =     0.00193797    0.00797848   -0.00318237
     atom    7 type  2   force =    -0.00198745   -0.00796976    0.00316939
     atom    8 type  2   force =    -0.00187153    0.00797164   -0.00317686
     atom    9 type  2   force =    -0.00002383   -0.00429946    0.00362216
     atom   10 type  2   force =     0.00003987    0.00429492   -0.00365213
     atom   11 type  3   force =    -0.00134464    0.00587947    0.00784865
     atom   12 type  3   force =    -0.00133273   -0.00588088   -0.00782828
     atom   13 type  3   force =     0.00089203   -0.00409494    0.00612240
     atom   14 type  3   force =     0.00089581    0.00409386   -0.00609340
     atom   15 type  3   force =     0.00136499    0.00587915    0.00784958
     atom   16 type  3   force =     0.00135348   -0.00587860   -0.00783043
     atom   17 type  3   force =    -0.00093020   -0.00409515    0.00611988
     atom   18 type  3   force =    -0.00093865    0.00409367   -0.00609819
     atom   19 type  3   force =    -0.00003993   -0.00433306    0.00572585
     atom   20 type  3   force =    -0.00003822    0.00433341   -0.00570274

     Total force =     0.037484     Total SCF correction =     0.000493


     Computing stress (Cartesian axis) and pressure


     negative rho (up, down):  6.534E-02 0.000E+00
          total   stress  (Ry/bohr**3)                   (kbar)     P=       -6.53
  -0.00001722  -0.00000000  -0.00000000           -2.53       -0.00       -0.00
  -0.00000000  -0.00005401   0.00000491           -0.00       -7.95        0.72
  -0.00000000   0.00000491  -0.00006188           -0.00        0.72       -9.10

     Energy error            =      2.1E-03 Ry
     Gradient error          =      8.0E-03 Ry/Bohr

     number of scf cycles    =   2
     number of bfgs steps    =   1

     energy             old  =   -9109.8828065574 Ry
     energy             new  =   -9109.8848958012 Ry

     CASE: energy            _new < energy            _old

     new trust radius        =       0.0135551383 bohr
     new conv_thr            =       0.0000000008 Ry


ATOMIC_POSITIONS (angstrom)
Ta              15.3884368042        0.9036948443       12.4489192919
Ta               6.5681412291        2.7559937150       12.5869185652
Ta               2.2685508663        0.9036904280       12.4487768874
Ta              11.0888396729        2.7559994067       12.5870457475
Ni              12.8670926788        0.9031462816       11.7659623249
Ni               4.0467294807        2.7565578176       13.2698515421
Ni               4.7898596760        0.9031507157       11.7657121141
Ni              13.6102088586        2.7565583522       13.2701068328
Ni               8.8283309711        0.9091634054       12.3729606261
Ni               0.0081248403        2.7505290308       12.6628630744
Te              14.2113201323        2.7532929602       10.5458052424
Te               5.3910098249        0.9063973407       14.4900246164
Te              10.5968216666        0.9092325026       10.5280955547
Te               1.7765411053        2.7504564256       14.5077403820
Te               3.4454405789        2.7532918911       10.5455805838
Te              12.2657331229        0.9063987624       14.4902455668
Te               7.0601787397        0.9092315850       10.5279320244
Te              15.8804536220        2.7504570641       14.5079102743
Te               0.0082437559        0.9091726901       10.8450258460
Te               8.8285047367        2.7505172349       14.1907739028



     Writing config-only to output data dir /ddn/data/physics/eamoujaes/2D-Ta2Ni3Te5/ELASTIC/C22/OUT/ta2ni3te5.save/ :
     XML data file
     NEW-OLD atomic charge density approx. for the potential

     negative rho (up, down):  6.566E-02 0.000E+00

     total cpu time spent up to now is     1746.0 secs

     Self-consistent Calculation

     iteration #  1     ecut=    60.00 Ry     beta= 0.20
     Davidson diagonalization with overlap
     ethr =  1.00E-06,  avg # of iterations =  6.1

     negative rho (up, down):  6.561E-02 0.000E+00

     total cpu time spent up to now is     1785.5 secs

     total energy              =   -9109.88641004 Ry
     estimated scf accuracy    <       0.00040069 Ry

     iteration #  2     ecut=    60.00 Ry     beta= 0.20
     Davidson diagonalization with overlap
     ethr =  1.82E-07,  avg # of iterations =  3.3

     negative rho (up, down):  6.560E-02 0.000E+00

     total cpu time spent up to now is     1823.0 secs

     total energy              =   -9109.88646125 Ry
     estimated scf accuracy    <       0.00108695 Ry

     iteration #  3     ecut=    60.00 Ry     beta= 0.20
     Davidson diagonalization with overlap
     ethr =  1.82E-07,  avg # of iterations =  1.9

     negative rho (up, down):  6.558E-02 0.000E+00

     total cpu time spent up to now is     1860.3 secs

     total energy              =   -9109.88651438 Ry
     estimated scf accuracy    <       0.00012081 Ry

     iteration #  4     ecut=    60.00 Ry     beta= 0.20
     Davidson diagonalization with overlap
     ethr =  5.49E-08,  avg # of iterations =  2.0

     negative rho (up, down):  6.553E-02 0.000E+00

     total cpu time spent up to now is     1897.3 secs

     total energy              =   -9109.88651515 Ry
     estimated scf accuracy    <       0.00009167 Ry

     iteration #  5     ecut=    60.00 Ry     beta= 0.20
     Davidson diagonalization with overlap
     ethr =  4.17E-08,  avg # of iterations =  2.0

     negative rho (up, down):  6.550E-02 0.000E+00

     total cpu time spent up to now is     1934.2 secs

     total energy              =   -9109.88652313 Ry
     estimated scf accuracy    <       0.00001123 Ry

     iteration #  6     ecut=    60.00 Ry     beta= 0.20
     Davidson diagonalization with overlap
     ethr =  5.10E-09,  avg # of iterations =  3.3

     negative rho (up, down):  6.549E-02 0.000E+00

     total cpu time spent up to now is     1971.8 secs

     total energy              =   -9109.88652523 Ry
     estimated scf accuracy    <       0.00004467 Ry

     iteration #  7     ecut=    60.00 Ry     beta= 0.20
     Davidson diagonalization with overlap
     ethr =  5.10E-09,  avg # of iterations =  1.7

     negative rho (up, down):  6.547E-02 0.000E+00

     total cpu time spent up to now is     2009.0 secs

     total energy              =   -9109.88652881 Ry
     estimated scf accuracy    <       0.00000202 Ry

     iteration #  8     ecut=    60.00 Ry     beta= 0.20
     Davidson diagonalization with overlap
     ethr =  9.16E-10,  avg # of iterations =  3.1

     negative rho (up, down):  6.546E-02 0.000E+00

     total cpu time spent up to now is     2046.5 secs

     total energy              =   -9109.88652970 Ry
     estimated scf accuracy    <       0.00000119 Ry

     iteration #  9     ecut=    60.00 Ry     beta= 0.20
     Davidson diagonalization with overlap
     ethr =  5.41E-10,  avg # of iterations =  2.0

     negative rho (up, down):  6.544E-02 0.000E+00

     total cpu time spent up to now is     2083.7 secs

     total energy              =   -9109.88653041 Ry
     estimated scf accuracy    <       0.00000069 Ry

     iteration # 10     ecut=    60.00 Ry     beta= 0.20
     Davidson diagonalization with overlap
     ethr =  3.14E-10,  avg # of iterations =  2.0

     negative rho (up, down):  6.544E-02 0.000E+00

     total cpu time spent up to now is     2121.0 secs

     total energy              =   -9109.88653059 Ry
     estimated scf accuracy    <       0.00000014 Ry

     iteration # 11     ecut=    60.00 Ry     beta= 0.20
     Davidson diagonalization with overlap
     ethr =  6.59E-11,  avg # of iterations =  4.0

     negative rho (up, down):  6.543E-02 0.000E+00

     total cpu time spent up to now is     2158.6 secs

     total energy              =   -9109.88653064 Ry
     estimated scf accuracy    <       0.00000010 Ry

     iteration # 12     ecut=    60.00 Ry     beta= 0.20
     Davidson diagonalization with overlap
     ethr =  4.56E-11,  avg # of iterations =  1.2

     negative rho (up, down):  6.543E-02 0.000E+00

     total cpu time spent up to now is     2195.8 secs

     total energy              =   -9109.88653068 Ry
     estimated scf accuracy    <       0.00000006 Ry

     iteration # 13     ecut=    60.00 Ry     beta= 0.20
     Davidson diagonalization with overlap
     ethr =  2.51E-11,  avg # of iterations =  2.0

     negative rho (up, down):  6.543E-02 0.000E+00

     total cpu time spent up to now is     2232.8 secs

     total energy              =   -9109.88653067 Ry
     estimated scf accuracy    <       0.00000002 Ry

     iteration # 14     ecut=    60.00 Ry     beta= 0.20
     Davidson diagonalization with overlap
     ethr =  8.63E-12,  avg # of iterations =  2.9

     negative rho (up, down):  6.543E-02 0.000E+00

     total cpu time spent up to now is     2270.0 secs

     total energy              =   -9109.88653069 Ry
     estimated scf accuracy    <       0.00000002 Ry

     iteration # 15     ecut=    60.00 Ry     beta= 0.20
     Davidson diagonalization with overlap
     ethr =  7.71E-12,  avg # of iterations =  2.0

     negative rho (up, down):  6.543E-02 0.000E+00

     total cpu time spent up to now is     2307.1 secs

     total energy              =   -9109.88653069 Ry
     estimated scf accuracy    <          4.1E-09 Ry

     iteration # 16     ecut=    60.00 Ry     beta= 0.20
     Davidson diagonalization with overlap
     ethr =  1.88E-12,  avg # of iterations =  4.9

     negative rho (up, down):  6.543E-02 0.000E+00

     total cpu time spent up to now is     2344.6 secs

     total energy              =   -9109.88653069 Ry
     estimated scf accuracy    <          3.0E-09 Ry

     iteration # 17     ecut=    60.00 Ry     beta= 0.20
     Davidson diagonalization with overlap
     ethr =  1.36E-12,  avg # of iterations =  1.8

     negative rho (up, down):  6.543E-02 0.000E+00

     total cpu time spent up to now is     2381.8 secs

     total energy              =   -9109.88653069 Ry
     estimated scf accuracy    <          2.3E-09 Ry

     iteration # 18     ecut=    60.00 Ry     beta= 0.20
     Davidson diagonalization with overlap
     ethr =  1.03E-12,  avg # of iterations =  1.7

     negative rho (up, down):  6.543E-02 0.000E+00

     total cpu time spent up to now is     2419.1 secs

     End of self-consistent calculation

          k = 0.0000 0.0000 0.0000 ( 87367 PWs)   bands (ev):

  -103.4233-103.4232-103.4131-103.4131-103.0187-103.0187 -68.8546 -68.8546
   -68.8543 -68.8543 -64.0015 -64.0013 -63.9982 -63.9981 -63.8329 -63.8328
   -63.7778 -63.7776 -63.7064 -63.7063 -63.6703 -63.6703 -63.5242 -63.5239
   -63.4739 -63.4738 -63.3041 -63.3040 -35.3363 -35.3358 -35.3354 -35.3348
   -35.2836 -35.2836 -35.2834 -35.2834 -35.2692 -35.2653 -35.2651 -35.2611
   -12.9592 -12.6728 -12.5606 -12.1161 -12.0671 -11.8801 -11.8278 -11.7977
   -11.6747 -11.4961  -6.1900  -5.9405  -5.7464  -5.7100  -5.4585  -5.4062
    -5.3921  -4.7909  -4.6515  -4.2415  -4.1628  -3.8543  -3.8051  -3.7911
    -3.7713  -3.7543  -3.6892  -3.6209  -3.3929  -3.3887  -3.1155  -2.9616
    -2.9529  -2.8256  -2.7458  -2.6725  -2.6462  -2.6187  -2.4130  -2.3650
    -2.3025  -2.2044  -2.1494  -2.1452  -2.0604  -1.9810  -1.9296  -1.8980
    -1.8054  -1.6862  -1.6603  -1.5178  -1.4733  -1.4552  -1.3915  -1.3693
    -1.3362  -1.3220  -1.2107  -1.1864  -1.0988  -0.9561  -0.8530  -0.8364
    -0.7886  -0.5912  -0.5125  -0.4134  -0.4084  -0.1452  -0.0297  -0.0129
     0.5648   0.7513   0.8889   1.0079   1.1399   1.2457   1.4453   1.4644
     1.4803   1.7282   2.0060   2.0366   2.1469   2.5247   2.9236   3.0594
     3.0926   3.1533   3.2804   3.3748

          k = 0.0000 0.4726 0.0000 ( 87327 PWs)   bands (ev):

  -103.4230-103.4230-103.4133-103.4133-103.0187-103.0187 -68.8545 -68.8545
   -68.8542 -68.8542 -64.0014 -64.0014 -63.9984 -63.9981 -63.8319 -63.8318
   -63.7799 -63.7799 -63.7045 -63.7044 -63.6708 -63.6707 -63.5241 -63.5240
   -63.4739 -63.4738 -63.3041 -63.3040 -35.3356 -35.3351 -35.3347 -35.3341
   -35.2892 -35.2891 -35.2889 -35.2889 -35.2685 -35.2648 -35.2644 -35.2607
   -12.8708 -12.5867 -12.4836 -12.0715 -12.0033 -11.8418 -11.7760 -11.7504
   -11.6262 -11.4660  -6.1126  -5.8665  -5.6604  -5.6165  -5.3974  -5.3349
    -5.2986  -4.7195  -4.5954  -4.2125  -4.1507  -4.0006  -3.9079  -3.9008
    -3.8519  -3.8107  -3.6941  -3.6526  -3.3823  -3.3416  -3.1541  -3.1408
    -2.9062  -2.8681  -2.8653  -2.7939  -2.7897  -2.7523  -2.6605  -2.3304
    -2.2998  -2.2774  -2.2397  -2.2240  -2.1465  -2.0508  -1.9021  -1.8856
    -1.8646  -1.8542  -1.7853  -1.7338  -1.6759  -1.5843  -1.4838  -1.4751
    -1.3695  -1.3654  -1.2426  -1.0751  -1.0568  -1.0242  -1.0119  -0.7792
    -0.6844  -0.6821  -0.6476  -0.5367  -0.2629  -0.2574   0.0494   0.2301
     0.5055   0.6612   0.8986   1.0070   1.1092   1.1423   1.3314   1.4934
     1.5448   1.7082   1.7805   1.9278   2.1960   2.4638   2.5066   2.6212
     2.7095   2.8242   3.2479   3.4432

          k = 0.0000 0.9451 0.0000 ( 87303 PWs)   bands (ev):

  -103.4223-103.4223-103.4140-103.4140-103.0187-103.0187 -68.8542 -68.8542
   -68.8539 -68.8539 -64.0013 -64.0012 -63.9986 -63.9985 -63.8292 -63.8291
   -63.7858 -63.7858 -63.7000 -63.6999 -63.6722 -63.6721 -63.5241 -63.5238
   -63.4739 -63.4739 -63.3041 -63.3041 -35.3337 -35.3333 -35.3328 -35.3323
   -35.3038 -35.3036 -35.3035 -35.3033 -35.2666 -35.2634 -35.2627 -35.2596
   -12.6178 -12.3418 -12.2682 -11.9461 -11.8365 -11.7463 -11.6246 -11.6148
   -11.4986 -11.3864  -5.9292  -5.6850  -5.4456  -5.4095  -5.2450  -5.1388
    -5.0670  -4.6744  -4.5740  -4.3360  -4.2383  -4.1881  -4.0976  -4.0936
    -4.0101  -3.9698  -3.8828  -3.7040  -3.6199  -3.5676  -3.3085  -3.2882
    -3.2854  -3.1226  -3.0776  -2.9687  -2.9190  -2.8110  -2.7017  -2.6679
    -2.5529  -2.5014  -2.4251  -2.3906  -2.2809  -2.1873  -2.1132  -2.1042
    -2.0499  -1.9096  -1.8427  -1.7662  -1.7621  -1.6205  -1.5780  -1.5771
    -1.5156  -1.4176  -1.4080  -1.1516  -1.0996  -1.0153  -1.0036  -0.9634
    -0.9097  -0.8777  -0.7055  -0.5563  -0.4602  -0.4159   0.3533   0.5132
     0.5356   0.8438   0.8746   0.9105   1.0462   1.1134   1.1333   1.3046
     1.6302   1.6386   1.6532   1.9434   2.0418   2.2608   2.3156   2.3795
     2.5584   2.6074   3.6639   3.8750

          k = 0.0000 1.4177 0.0000 ( 87277 PWs)   bands (ev):

  -103.4212-103.4211-103.4152-103.4151-103.0187-103.0187 -68.8538 -68.8538
   -68.8536 -68.8535 -64.0011 -64.0010 -63.9992 -63.9990 -63.8247 -63.8246
   -63.7937 -63.7936 -63.6941 -63.6939 -63.6745 -63.6744 -63.5242 -63.5240
   -63.4739 -63.4738 -63.3041 -63.3040 -35.3316 -35.3313 -35.3307 -35.3304
   -35.3215 -35.3213 -35.3211 -35.3208 -35.2641 -35.2618 -35.2606 -35.2583
   -12.2417 -11.9848 -11.9710 -11.7599 -11.6333 -11.6330 -11.4331 -11.4008
   -11.3517 -11.2876  -5.8513  -5.6268  -5.4812  -5.4479  -5.1162  -5.1103
    -4.9888  -4.8808  -4.7646  -4.5841  -4.4576  -4.4146  -4.2507  -4.1417
    -4.1123  -4.0329  -3.9295  -3.8623  -3.7656  -3.6137  -3.5284  -3.5009
    -3.3921  -3.2421  -3.1441  -3.1119  -3.1019  -2.9464  -2.8056  -2.7265
    -2.7138  -2.6997  -2.5528  -2.5110  -2.3576  -2.2270  -2.1917  -2.1847
    -2.1747  -2.0327  -2.0079  -1.9424  -1.8168  -1.7154  -1.6586  -1.5954
    -1.5126  -1.4988  -1.4950  -1.4066  -1.1822  -1.1680  -1.1617  -1.1555
    -0.9392  -0.9328  -0.8583  -0.6870  -0.6559  -0.6092   0.3654   0.4900
     0.6490   0.8556   0.9733   1.0465   1.1823   1.2233   1.2941   1.3091
     1.5925   1.6978   1.7076   2.0397   2.0861   2.2725   2.4662   2.5056
     2.7208   2.7907   3.4500   3.4738

          k = 0.0000 1.8903 0.0000 ( 87282 PWs)   bands (ev):

  -103.4197-103.4197-103.4166-103.4165-103.0187-103.0187 -68.8535 -68.8534
   -68.8533 -68.8533 -64.0008 -64.0006 -63.9998 -63.9996 -63.8188 -63.8187
   -63.8024 -63.8023 -63.6879 -63.6879 -63.6778 -63.6778 -63.5242 -63.5239
   -63.4739 -63.4738 -63.3043 -63.3042 -35.3370 -35.3369 -35.3364 -35.3363
   -35.3287 -35.3285 -35.3277 -35.3275 -35.2618 -35.2606 -35.2586 -35.2574
   -11.8298 -11.7192 -11.6163 -11.5455 -11.5251 -11.4644 -11.2976 -11.2903
   -11.2080 -11.2049  -6.0719  -6.0236  -5.9793  -5.9677  -5.2943  -5.2353
    -5.0689  -5.0128  -4.8229  -4.7118  -4.4055  -4.3213  -4.3049  -4.0065
    -3.9936  -3.8680  -3.7471  -3.7363  -3.6711  -3.6461  -3.4806  -3.4395
    -3.4297  -3.4225  -3.3102  -3.2936  -3.0707  -3.0550  -2.9348  -2.9208
    -2.6762  -2.6639  -2.5939  -2.5624  -2.3174  -2.2691  -2.2532  -2.2241
    -2.1897  -2.1495  -2.0929  -1.9905  -1.9640  -1.8649  -1.8181  -1.7204
    -1.5343  -1.5247  -1.4779  -1.4595  -1.3691  -1.3036  -1.2598  -1.2258
    -1.0810  -1.0019  -0.9749  -0.8369  -0.8026  -0.7784   0.2313   0.3158
     0.8028   0.9815   0.9937   1.0921   1.1289   1.5585   1.6171   1.6359
     1.6546   1.7133   1.9037   1.9535   2.0520   2.3517   2.5584   2.6835
     2.9136   3.1043   3.1480   3.1495

          k = 0.0000-2.3628 0.0000 ( 87370 PWs)   bands (ev):

  -103.4184-103.4184-103.4179-103.4179-103.0187-103.0187 -68.8533 -68.8533
   -68.8533 -68.8532 -64.0005 -64.0004 -64.0002 -64.0000 -63.8121 -63.8120
   -63.8103 -63.8101 -63.6834 -63.6833 -63.6816 -63.6815 -63.5241 -63.5241
   -63.4739 -63.4739 -63.3044 -63.3044 -35.3423 -35.3422 -35.3417 -35.3415
   -35.3282 -35.3281 -35.3272 -35.3271 -35.2606 -35.2606 -35.2575 -35.2574
   -11.6173 -11.6172 -11.4385 -11.4212 -11.4189 -11.4136 -11.3164 -11.3061
   -11.1611 -11.1584  -6.2297  -6.2200  -6.2174  -6.2108  -5.4516  -5.4329
    -5.0507  -5.0459  -4.8663  -4.8654  -4.2055  -4.2002  -4.0485  -4.0373
    -3.9141  -3.8997  -3.6266  -3.6033  -3.5452  -3.5368  -3.5229  -3.5160
    -3.5102  -3.5048  -3.2261  -3.2149  -3.1895  -3.1709  -3.0255  -3.0173
    -2.6211  -2.6145  -2.5592  -2.5389  -2.3013  -2.2848  -2.2799  -2.2519
    -2.2316  -2.2290  -2.0067  -2.0009  -1.9457  -1.9390  -1.9028  -1.8923
    -1.5519  -1.5516  -1.4005  -1.3980  -1.3970  -1.3963  -1.2938  -1.2927
    -1.1813  -1.1781  -1.0023  -0.9974  -0.7930  -0.7741   0.2288   0.2393
     0.9007   0.9117   1.0445   1.0483   1.2545   1.2933   1.6330   1.6407
     1.9393   1.9445   2.0400   2.0418   2.1373   2.1673   2.5226   2.5362
     2.8915   2.9118   3.2231   3.2673

          k =-0.5000 0.0000 0.0000 ( 87370 PWs)   bands (ev):

  -103.4233-103.4232-103.4131-103.4131-103.0187-103.0187 -68.8546 -68.8546
   -68.8543 -68.8543 -64.0016 -64.0015 -63.9981 -63.9981 -63.8328 -63.8328
   -63.7777 -63.7777 -63.7063 -63.7063 -63.6703 -63.6703 -63.5241 -63.5241
   -63.4739 -63.4738 -63.3041 -63.3040 -35.3361 -35.3361 -35.3350 -35.3350
   -35.2836 -35.2836 -35.2834 -35.2834 -35.2681 -35.2680 -35.2623 -35.2623
   -12.8717 -12.8716 -12.2683 -12.2683 -12.0578 -12.0578 -11.7518 -11.7518
   -11.5763 -11.5763  -6.1004  -6.1003  -5.7491  -5.7491  -5.4093  -5.4093
    -5.0445  -5.0445  -4.5933  -4.5932  -3.8920  -3.8920  -3.7751  -3.7751
    -3.7351  -3.7351  -3.5523  -3.5523  -3.3897  -3.3896  -3.2500  -3.2500
    -2.9095  -2.9095  -2.6947  -2.6947  -2.6227  -2.6226  -2.3252  -2.3252
    -2.3049  -2.3049  -2.1126  -2.1126  -2.0241  -2.0241  -1.8425  -1.8424
    -1.7917  -1.7916  -1.6277  -1.6277  -1.4174  -1.4174  -1.3647  -1.3647
    -1.3346  -1.3345  -1.2334  -1.2334  -1.0262  -1.0262  -0.8054  -0.8053
    -0.7119  -0.7119  -0.4464  -0.4464  -0.2907  -0.2907  -0.0274  -0.0274
     0.7279   0.7279   0.9176   0.9176   1.2357   1.2357   1.2844   1.2844
     1.6063   1.6063   2.0839   2.0840   2.2916   2.2917   3.0482   3.0482
[...]
     1.6342   1.6409   1.6668   1.9601   2.0530   2.2767   2.3386   2.4016
     2.5829   2.6275   3.6802   3.7933

          k = 0.0000 1.4177 0.0000 ( 87277 PWs)   bands (ev):

  -103.4365-103.4365-103.4301-103.4301-103.0265-103.0265 -68.8432 -68.8432
   -68.8430 -68.8430 -64.0177 -64.0176 -64.0157 -64.0155 -63.8443 -63.8441
   -63.8115 -63.8114 -63.7066 -63.7064 -63.6865 -63.6864 -63.5272 -63.5270
   -63.4801 -63.4800 -63.3194 -63.3194 -35.3246 -35.3242 -35.3237 -35.3233
   -35.3166 -35.3164 -35.3162 -35.3159 -35.2588 -35.2565 -35.2553 -35.2530
   -12.2747 -12.0250 -11.9938 -11.7807 -11.6613 -11.6542 -11.4593 -11.4222
   -11.3775 -11.3079  -5.8785  -5.6529  -5.5241  -5.4872  -5.1555  -5.1403
    -5.0181  -4.9147  -4.7948  -4.6166  -4.4802  -4.4412  -4.2701  -4.1705
    -4.1430  -4.0554  -3.9507  -3.8783  -3.7828  -3.6338  -3.5675  -3.5265
    -3.4173  -3.2530  -3.1613  -3.1388  -3.1107  -2.9554  -2.8366  -2.7524
    -2.7345  -2.7191  -2.5758  -2.5434  -2.3800  -2.2511  -2.2080  -2.2017
    -2.1936  -2.0488  -2.0310  -1.9566  -1.8408  -1.7234  -1.6746  -1.6073
    -1.5243  -1.5141  -1.5069  -1.4089  -1.1894  -1.1653  -1.1631  -1.1594
    -0.9440  -0.9382  -0.8578  -0.6999  -0.6470  -0.6121   0.3694   0.4914
     0.6493   0.8569   1.0073   1.0572   1.1890   1.2395   1.3090   1.3165
     1.6045   1.7053   1.7163   2.0621   2.0917   2.2820   2.4943   2.5305
     2.7497   2.8091   3.4845   3.4979

          k = 0.0000 1.8903 0.0000 ( 87282 PWs)   bands (ev):

  -103.4350-103.4349-103.4316-103.4316-103.0265-103.0264 -68.8429 -68.8428
   -68.8427 -68.8427 -64.0174 -64.0171 -64.0163 -64.0161 -63.8380 -63.8379
   -63.8207 -63.8206 -63.7002 -63.7002 -63.6900 -63.6899 -63.5272 -63.5269
   -63.4801 -63.4800 -63.3196 -63.3195 -35.3314 -35.3314 -35.3309 -35.3308
   -35.3223 -35.3222 -35.3214 -35.3212 -35.2566 -35.2553 -35.2533 -35.2521
   -11.8574 -11.7389 -11.6547 -11.5719 -11.5510 -11.4957 -11.3220 -11.3167
   -11.2287 -11.2260  -6.1083  -6.0643  -6.0233  -6.0037  -5.3264  -5.2691
    -5.0997  -5.0520  -4.8466  -4.7440  -4.4202  -4.3454  -4.3204  -4.0246
    -3.9998  -3.8941  -3.7703  -3.7458  -3.6808  -3.6622  -3.5108  -3.4604
    -3.4414  -3.4383  -3.3185  -3.3025  -3.1051  -3.0891  -2.9563  -2.9487
    -2.6973  -2.6934  -2.6134  -2.5949  -2.3457  -2.2923  -2.2829  -2.2480
    -2.2065  -2.1710  -2.1053  -2.0093  -1.9896  -1.8753  -1.8371  -1.7323
    -1.5416  -1.5315  -1.4935  -1.4784  -1.3759  -1.3123  -1.2704  -1.2311
    -1.0803  -1.0226  -0.9893  -0.8298  -0.7995  -0.7796   0.2366   0.3198
     0.8083   0.9957   1.0134   1.1168   1.1388   1.5676   1.6170   1.6379
     1.6636   1.7154   1.9063   1.9731   2.0490   2.3697   2.5625   2.7123
     2.9488   3.1408   3.1722   3.1783

          k = 0.0000-2.3628 0.0000 ( 87370 PWs)   bands (ev):

  -103.4334-103.4334-103.4332-103.4332-103.0265-103.0264 -68.8427 -68.8427
   -68.8426 -68.8426 -64.0171 -64.0169 -64.0168 -64.0166 -63.8307 -63.8306
   -63.8292 -63.8291 -63.6947 -63.6947 -63.6945 -63.6945 -63.5271 -63.5271
   -63.4801 -63.4801 -63.3197 -63.3197 -35.3370 -35.3370 -35.3363 -35.3363
   -35.3216 -35.3216 -35.3206 -35.3206 -35.2553 -35.2553 -35.2522 -35.2521
   -11.6356 -11.6354 -11.4658 -11.4644 -11.4523 -11.4523 -11.3334 -11.3324
   -11.1801 -11.1796  -6.2622  -6.2610  -6.2592  -6.2564  -5.4763  -5.4742
    -5.0758  -5.0721  -4.9006  -4.8984  -4.2142  -4.2140  -4.0692  -4.0653
    -3.9220  -3.9213  -3.6205  -3.6188  -3.5680  -3.5631  -3.5267  -3.5235
    -3.5167  -3.5160  -3.2454  -3.2442  -3.2029  -3.2027  -3.0658  -3.0638
    -2.6404  -2.6384  -2.5786  -2.5768  -2.3196  -2.3122  -2.3030  -2.3008
    -2.2529  -2.2525  -2.0156  -2.0147  -1.9614  -1.9563  -1.9150  -1.9085
    -1.5624  -1.5592  -1.4131  -1.4129  -1.4081  -1.4031  -1.3110  -1.3097
    -1.2014  -1.1986  -0.9959  -0.9953  -0.7799  -0.7795   0.2375   0.2394
     0.9101   0.9148   1.0766   1.0775   1.2780   1.2807   1.6371   1.6426
     1.9460   1.9495   2.0294   2.0296   2.1632   2.1668   2.5442   2.5442
     2.9364   2.9416   3.2702   3.2733

          k =-0.5000 0.0000 0.0000 ( 87370 PWs)   bands (ev):

  -103.4387-103.4387-103.4279-103.4279-103.0265-103.0265 -68.8440 -68.8440
   -68.8437 -68.8437 -64.0182 -64.0182 -64.0145 -64.0145 -63.8529 -63.8529
   -63.7948 -63.7948 -63.7192 -63.7191 -63.6822 -63.6822 -63.5271 -63.5270
   -63.4801 -63.4800 -63.3194 -63.3193 -35.3294 -35.3294 -35.3283 -35.3283
   -35.2780 -35.2780 -35.2777 -35.2777 -35.2630 -35.2630 -35.2571 -35.2571
   -12.9102 -12.9102 -12.3007 -12.3007 -12.0723 -12.0723 -11.7734 -11.7734
   -11.5967 -11.5967  -6.1152  -6.1152  -5.7738  -5.7738  -5.4297  -5.4296
    -5.0758  -5.0758  -4.6244  -4.6243  -3.9120  -3.9120  -3.8303  -3.8303
    -3.7661  -3.7661  -3.5811  -3.5811  -3.4373  -3.4373  -3.2704  -3.2703
    -2.9456  -2.9456  -2.7128  -2.7128  -2.6471  -2.6470  -2.3390  -2.3390
    -2.3333  -2.3332  -2.1408  -2.1407  -2.0343  -2.0343  -1.8372  -1.8372
    -1.8010  -1.8010  -1.6231  -1.6230  -1.4570  -1.4570  -1.3708  -1.3708
    -1.3688  -1.3688  -1.2325  -1.2325  -1.0145  -1.0145  -0.8306  -0.8306
    -0.7106  -0.7106  -0.4466  -0.4465  -0.2911  -0.2910  -0.0260  -0.0260
     0.7269   0.7269   0.9313   0.9313   1.2329   1.2329   1.3286   1.3286
     1.6072   1.6073   2.0984   2.0984   2.3048   2.3048   3.0825   3.0825
     3.1200   3.1200   3.3349   3.3350

          k =-0.5000 0.4726 0.0000 ( 87408 PWs)   bands (ev):

  -103.4384-103.4384-103.4282-103.4282-103.0265-103.0265 -68.8439 -68.8439
   -68.8436 -68.8436 -64.0180 -64.0180 -64.0148 -64.0148 -63.8520 -63.8520
   -63.7971 -63.7971 -63.7174 -63.7174 -63.6827 -63.6827 -63.5271 -63.5270
   -63.4801 -63.4801 -63.3195 -63.3194 -35.3287 -35.3286 -35.3276 -35.3276
   -35.2837 -35.2836 -35.2834 -35.2834 -35.2623 -35.2622 -35.2566 -35.2566
   -12.8226 -12.8225 -12.2265 -12.2264 -12.0305 -12.0305 -11.7256 -11.7256
   -11.5605 -11.5605  -6.0375  -6.0374  -5.6860  -5.6859  -5.3528  -5.3527
    -5.0135  -5.0135  -4.5784  -4.5783  -4.0313  -4.0313  -3.9420  -3.9420
    -3.7366  -3.7366  -3.5856  -3.5855  -3.5303  -3.5303  -3.1948  -3.1948
    -3.0734  -3.0733  -2.8120  -2.8119  -2.7867  -2.7867  -2.5271  -2.5271
    -2.2824  -2.2824  -2.2439  -2.2439  -2.0587  -2.0586  -1.9554  -1.9554
    -1.8543  -1.8542  -1.7827  -1.7827  -1.6322  -1.6321  -1.4998  -1.4998
    -1.3450  -1.3450  -1.2009  -1.2009  -0.9890  -0.9890  -0.8728  -0.8727
    -0.7452  -0.7452  -0.6132  -0.6132  -0.2195  -0.2195   0.1299   0.1299
     0.6085   0.6085   1.0244   1.0244   1.1812   1.1812   1.2885   1.2885
     1.5685   1.5685   1.9438   1.9438   2.2469   2.2469   2.6479   2.6479
     2.7737   2.7737   3.4066   3.4067

          k =-0.5000 0.9451 0.0000 ( 87374 PWs)   bands (ev):

  -103.4377-103.4377-103.4290-103.4289-103.0265-103.0265 -68.8436 -68.8436
   -68.8433 -68.8433 -64.0180 -64.0179 -64.0152 -64.0152 -63.8490 -63.8490
   -63.8032 -63.8032 -63.7126 -63.7126 -63.6841 -63.6841 -63.5271 -63.5271
   -63.4801 -63.4801 -63.3194 -63.3194 -35.3267 -35.3267 -35.3257 -35.3257
   -35.2984 -35.2984 -35.2981 -35.2981 -35.2604 -35.2604 -35.2553 -35.2553
   -12.5725 -12.5724 -12.0211 -12.0211 -11.9150 -11.9150 -11.6006 -11.6006
   -11.4599 -11.4598  -5.8494  -5.8494  -5.4626  -5.4626  -5.1713  -5.1712
    -4.9511  -4.9511  -4.5162  -4.5162  -4.2589  -4.2589  -4.1931  -4.1931
    -3.8393  -3.8393  -3.7218  -3.7218  -3.6620  -3.6620  -3.3998  -3.3997
    -3.2871  -3.2871  -3.0467  -3.0467  -2.8575  -2.8574  -2.7509  -2.7509
    -2.5461  -2.5460  -2.4596  -2.4596  -2.2096  -2.2096  -2.1280  -2.1280
    -2.0101  -2.0101  -1.8337  -1.8337  -1.6600  -1.6600  -1.5833  -1.5832
    -1.4226  -1.4226  -1.3369  -1.3369  -1.1203  -1.1202  -0.9936  -0.9936
    -0.8949  -0.8949  -0.5564  -0.5563  -0.4141  -0.4140   0.3926   0.3926
     0.6937   0.6937   0.9301   0.9301   1.1966   1.1966   1.2624   1.2624
     1.4447   1.4448   1.8128   1.8128   2.1785   2.1786   2.4228   2.4228
     2.5487   2.5488   3.7610   3.7610

          k =-0.5000 1.4177 0.0000 ( 87274 PWs)   bands (ev):

  -103.4365-103.4365-103.4301-103.4301-103.0265-103.0265 -68.8432 -68.8432
   -68.8430 -68.8430 -64.0177 -64.0177 -64.0157 -64.0156 -63.8442 -63.8442
   -63.8115 -63.8114 -63.7065 -63.7065 -63.6865 -63.6864 -63.5271 -63.5271
   -63.4801 -63.4800 -63.3194 -63.3194 -35.3244 -35.3244 -35.3234 -35.3234
   -35.3165 -35.3165 -35.3160 -35.3160 -35.2580 -35.2580 -35.2538 -35.2538
   -12.2036 -12.2036 -11.7713 -11.7713 -11.7282 -11.7281 -11.4512 -11.4512
   -11.3241 -11.3241  -5.7896  -5.7896  -5.4099  -5.4099  -5.2491  -5.2491
    -5.0275  -5.0274  -4.6235  -4.6235  -4.4909  -4.4908  -4.1476  -4.1476
    -4.0544  -4.0543  -3.9716  -3.9716  -3.7145  -3.7145  -3.5809  -3.5809
    -3.2510  -3.2509  -3.1688  -3.1688  -3.0240  -3.0240  -2.9088  -2.9088
    -2.6590  -2.6590  -2.6012  -2.6012  -2.3184  -2.3184  -2.1957  -2.1956
    -2.1405  -2.1405  -2.0077  -2.0077  -1.7092  -1.7092  -1.6493  -1.6493
    -1.5042  -1.5042  -1.4747  -1.4747  -1.2356  -1.2356  -1.1220  -1.1220
    -0.9533  -0.9533  -0.7689  -0.7689  -0.6234  -0.6233   0.3998   0.3999
     0.8904   0.8905   1.0470   1.0470   1.2185   1.2185   1.2506   1.2507
     1.5989   1.5989   1.8057   1.8058   2.3175   2.3175   2.5118   2.5118
     2.6668   2.6669   3.5560   3.5561

          k =-0.5000 1.8903 0.0000 ( 87252 PWs)   bands (ev):

  -103.4350-103.4349-103.4316-103.4316-103.0265-103.0264 -68.8428 -68.8428
   -68.8427 -68.8427 -64.0173 -64.0173 -64.0161 -64.0161 -63.8379 -63.8379
   -63.8207 -63.8206 -63.7002 -63.7001 -63.6899 -63.6899 -63.5270 -63.5270
   -63.4800 -63.4800 -63.3196 -63.3196 -35.3314 -35.3314 -35.3308 -35.3308
   -35.3223 -35.3223 -35.3213 -35.3213 -35.2561 -35.2560 -35.2526 -35.2526
   -11.8124 -11.8124 -11.6144 -11.6144 -11.4964 -11.4964 -11.3378 -11.3377
   -11.2206 -11.2206  -6.1537  -6.1537  -5.9105  -5.9105  -5.3529  -5.3529
    -5.0790  -5.0790  -4.7861  -4.7861  -4.3992  -4.3992  -4.1753  -4.1753
    -3.9326  -3.9326  -3.8038  -3.8038  -3.6233  -3.6233  -3.5167  -3.5167
    -3.3838  -3.3838  -3.2589  -3.2588  -3.0874  -3.0874  -2.9600  -2.9600
    -2.7605  -2.7605  -2.5641  -2.5641  -2.4195  -2.4194  -2.2379  -2.2379
    -2.1944  -2.1944  -2.0936  -2.0936  -1.8408  -1.8408  -1.7735  -1.7735
    -1.5657  -1.5657  -1.4865  -1.4864  -1.3690  -1.3690  -1.1868  -1.1868
    -1.1138  -1.1137  -0.9229  -0.9229  -0.7660  -0.7660   0.2789   0.2789
     0.9341   0.9342   1.1232   1.1232   1.2977   1.2977   1.6274   1.6274
     1.6774   1.6774   1.9215   1.9216   2.1564   2.1564   2.7731   2.7731
     2.8351   2.8351   3.2296   3.2296

          k =-0.5000-2.3628 0.0000 ( 87256 PWs)   bands (ev):

  -103.4334-103.4334-103.4332-103.4332-103.0265-103.0264 -68.8427 -68.8427
   -68.8426 -68.8426 -64.0168 -64.0168 -64.0165 -64.0165 -63.8307 -63.8306
   -63.8292 -63.8291 -63.6946 -63.6945 -63.6944 -63.6944 -63.5270 -63.5269
   -63.4800 -63.4799 -63.3197 -63.3197 -35.3370 -35.3370 -35.3363 -35.3363
   -35.3216 -35.3216 -35.3206 -35.3206 -35.2553 -35.2553 -35.2522 -35.2522
   -11.6354 -11.6354 -11.4636 -11.4636 -11.4531 -11.4531 -11.3352 -11.3351
   -11.1784 -11.1784  -6.3700  -6.3699  -6.1209  -6.1208  -5.5002  -5.5002
    -5.0640  -5.0640  -4.9272  -4.9272  -4.1630  -4.1629  -4.1549  -4.1549
    -3.8445  -3.8445  -3.6771  -3.6771  -3.5979  -3.5979  -3.5399  -3.5399
    -3.4672  -3.4672  -3.3502  -3.3502  -3.0095  -3.0095  -2.9377  -2.9377
    -2.8196  -2.8195  -2.5504  -2.5504  -2.4030  -2.4030  -2.2869  -2.2869
    -2.2693  -2.2693  -1.9850  -1.9849  -1.9432  -1.9432  -1.8694  -1.8693
    -1.5971  -1.5971  -1.4234  -1.4234  -1.4163  -1.4162  -1.2603  -1.2603
    -1.2361  -1.2361  -0.9998  -0.9998  -0.7760  -0.7760   0.2447   0.2447
     0.9640   0.9641   1.1038   1.1039   1.2080   1.2080   1.6829   1.6829
     1.9658   1.9659   2.0299   2.0300   2.0503   2.0504   2.6549   2.6550
     2.7698   2.7699   3.4802   3.4823

     the Fermi energy is    -0.0903 ev

!    total energy              =   -9109.88816132 Ry
     total all-electron energy =     -9109.888161 Ry
     estimated scf accuracy    <          4.9E-11 Ry
     smearing contrib. (-TS)   =      -0.00000126 Ry
     internal energy E=F+TS    =   -9109.88816006 Ry

     The total energy is F=E-TS. E is the sum of the following terms:
     one-electron contribution =  -16182.46431639 Ry
     hartree contribution      =    7949.07856533 Ry
     xc contribution           =    -364.83419250 Ry
     ewald contribution        =    5756.02541957 Ry
     one-center paw contrib.   =   -6267.69363606 Ry

     convergence has been achieved in  15 iterations

     negative rho (up, down):  6.569E-02 0.000E+00

     Forces acting on atoms (cartesian axes, Ry/au):

     atom    1 type  1   force =     0.00021648    0.00067205    0.00045774
     atom    2 type  1   force =     0.00021668   -0.00067307   -0.00045923
     atom    3 type  1   force =    -0.00022158    0.00067263    0.00045209
     atom    4 type  1   force =    -0.00022866   -0.00067352   -0.00045115
     atom    5 type  2   force =    -0.00041931    0.00088310    0.00010475
     atom    6 type  2   force =    -0.00041483   -0.00088021   -0.00010637
     atom    7 type  2   force =     0.00042319    0.00088228    0.00010932
     atom    8 type  2   force =     0.00042424   -0.00088015   -0.00010817
     atom    9 type  2   force =     0.00000366   -0.00041333   -0.00006122
     atom   10 type  2   force =    -0.00000401    0.00041802    0.00005814
     atom   11 type  3   force =    -0.00025809   -0.00027037    0.00054364
     atom   12 type  3   force =    -0.00025677    0.00027061   -0.00054038
     atom   13 type  3   force =    -0.00038851   -0.00017412   -0.00054721
     atom   14 type  3   force =    -0.00038715    0.00017027    0.00054483
     atom   15 type  3   force =     0.00025932   -0.00026979    0.00055245
     atom   16 type  3   force =     0.00026018    0.00026988   -0.00054776
     atom   17 type  3   force =     0.00039306   -0.00017402   -0.00054869
     atom   18 type  3   force =     0.00039140    0.00017024    0.00054622
     atom   19 type  3   force =    -0.00000458   -0.00062379    0.00030708
     atom   20 type  3   force =    -0.00000470    0.00062330   -0.00030607

     Total force =     0.003419     Total SCF correction =     0.000052


     Computing stress (Cartesian axis) and pressure


     negative rho (up, down):  6.569E-02 0.000E+00
          total   stress  (Ry/bohr**3)                   (kbar)     P=       -4.09
  -0.00000868  -0.00000000   0.00000000           -1.28       -0.00        0.00
  -0.00000000  -0.00003644   0.00000047           -0.00       -5.36        0.07
   0.00000000   0.00000047  -0.00003828            0.00        0.07       -5.63

     Energy error            =      4.0E-05 Ry
     Gradient error          =      8.8E-04 Ry/Bohr

     bfgs converged in   7 scf cycles and   6 bfgs steps
     (criteria: energy <  1.0E-04 Ry, force <  1.0E-03 Ry/Bohr)

     End of BFGS Geometry Optimization

     Final energy             =   -9109.8881613190 Ry

     File /ddn/data/physics/eamoujaes/2D-Ta2Ni3Te5/ELASTIC/C22/OUT/ta2ni3te5.bfgs deleted, as requested
Begin final coordinates

ATOMIC_POSITIONS (angstrom)
Ta              15.3859102801        0.8925335681       12.4556382266
Ta               6.5656060090        2.7671485044       12.5802029338
Ta               2.2710249278        0.8925321528       12.4554864084
Ta              11.0913370454        2.7671495608       12.5803469950
Ni              12.8702851455        0.8943899228       11.7730570924
Ni               4.0499405885        2.7653386768       13.2627721287
Ni               4.7867482239        0.8943964905       11.7728201470
Ni              13.6070777773        2.7653354422       13.2630096962
Ni               8.8283905500        0.8986619067       12.3816317261
Ni               0.0081698545        2.7610471997       12.6541820031
Te              14.2076130338        2.7613104882       10.5630529845
Te               5.3873050869        0.8983757176       14.4727586783
Te              10.5969197420        0.9015682494       10.5371382378
Te               1.7766345254        2.7581038660       14.4987185690
Te               3.4492025914        2.7613109825       10.5628739339
Te              12.2694966631        0.8983775953       14.4729328490
Te               7.0600086512        0.9015665267       10.5369706329
Te              15.8803106232        2.7581054413       14.4988751689
Te               0.0081621804        0.8980502844       10.8590274686
Te               8.8284188637        2.7616298778       14.1767551195
End final coordinates



     Writing all to output data dir /ddn/data/physics/eamoujaes/2D-Ta2Ni3Te5/ELASTIC/C22/OUT/ta2ni3te5.save/ :
     XML data file, charge density, pseudopotentials, collected wavefunctions
 
     init_run     :     50.82s CPU     63.24s WALL (       1 calls)
     electrons    :   3580.81s CPU   4626.08s WALL (       7 calls)
     update_pot   :    159.08s CPU    203.32s WALL (       6 calls)
     forces       :     12.44s CPU     15.35s WALL (       7 calls)
     stress       :     22.14s CPU     34.39s WALL (       7 calls)

     Called by init_run:
     wfcinit      :      5.76s CPU      7.51s WALL (       1 calls)
     potinit      :     40.58s CPU     50.08s WALL (       1 calls)
     hinit0       :      2.61s CPU      3.01s WALL (       1 calls)

     Called by electrons:
     c_bands      :    260.04s CPU    381.95s WALL (     126 calls)
     sum_band     :     88.23s CPU    116.74s WALL (     126 calls)
     v_of_rho     :     44.82s CPU     58.88s WALL (     130 calls)
     newd         :      9.82s CPU     16.03s WALL (     130 calls)
                                       16.03s GPU  (     130 calls)
     PAW_pot      :   3487.22s CPU   4443.74s WALL (     136 calls)
     mix_rho      :     13.22s CPU     23.96s WALL (     126 calls)

     Called by c_bands:
     init_us_2    :     25.27s CPU     31.71s WALL (    3276 calls)
     init_us_2:cp :     21.41s CPU     26.98s WALL (      72 calls)
     init_us_2:gp :      3.78s CPU      4.65s WALL (    3204 calls)
     cegterg      :    146.09s CPU    248.82s WALL (    1512 calls)

     Called by *egterg:
     cdiaghg      :     13.18s CPU     21.13s WALL (    5176 calls)
                                       21.10s GPU  (    5176 calls)
     h_psi        :    105.43s CPU    182.48s WALL (    5296 calls)
                                      182.06s GPU  (    5296 calls)
     s_psi        :      2.39s CPU      3.30s WALL (    5296 calls)
     g_psi        :      0.01s CPU      1.59s WALL (    3772 calls)
                                        1.57s GPU  (    3772 calls)

     Called by h_psi:
     h_psi:calbec :      0.17s CPU      7.15s WALL (    5296 calls)
                                        7.12s GPU  (    5296 calls)
     vloc_psi     :     94.63s CPU    164.93s WALL (    5296 calls)
                                      164.90s GPU  (    5296 calls)
     add_vuspsi   :      1.82s CPU      8.64s WALL (    5296 calls)
                                        8.61s GPU  (    5296 calls)

     General routines
     calbec       :     62.20s CPU    100.67s WALL (    7300 calls)
     fft          :     11.90s CPU     12.58s WALL (    1860 calls)
                                        0.71s GPU  (    1730 calls)
     ffts         :      3.34s CPU      3.35s WALL (     256 calls)
                                        0.02s GPU  (     126 calls)
     fftw         :      0.55s CPU    144.26s WALL (   78380 calls)
                                      143.80s GPU  (   78380 calls)
     interpolate  :     17.42s CPU     18.21s WALL (     130 calls)
 
     Parallel routines
 
     PWSCF        :      1h 7m CPU      1h28m WALL

 
   This run was terminated on:  15:56:37  28Jul2024            

=------------------------------------------------------------------------------=
   JOB DONE.
=------------------------------------------------------------------------------=
