
     Program PWSCF v.7.3 starts on 28Jul2024 at 15:56:45 

     This program is part of the open-source Quantum ESPRESSO suite
     for quantum simulation of materials; please cite
         "P. Giannozzi et al., J. Phys.:Condens. Matter 21 395502 (2009);
         "P. Giannozzi et al., J. Phys.:Condens. Matter 29 465901 (2017);
         "P. Giannozzi et al., J. Chem. Phys. 152 154105 (2020);
          URL http://www.quantum-espresso.org", 
     in publications or presentations arising from this work. More details at
     http://www.quantum-espresso.org/quote

     Parallel version (MPI & OpenMP), running on      32 processor cores
     Number of MPI processes:                 1
     Threads/MPI process:                    32

     MPI processes distributed on     1 nodes
     206755 MiB available memory on the printing compute node when the environment starts
 
     Waiting for input...
     Reading input from standard input
Warning: card &CELL ignored
Warning: card CELL_DYNAMICS='BFGS' ignored
Warning: card PRESS=0.0 ignored
Warning: card CELL_DOFREE='2DXY' ignored
Warning: card / ignored

     Current dimensions of program PWSCF are:
     Max number of different atomic species (ntypx) = 10
     Max number of k-points (npk) =  40000
     Max angular momentum in pseudopotentials (lmaxx) =  4
read_pp_mesh; mismatch in mesh size, discarding the one in header
read_pp_mesh; mismatch in mesh size, discarding the one in header
read_pp_mesh; mismatch in mesh size, discarding the one in header
 
     Subspace diagonalization in iterative solution of the eigenvalue problem:
     a serial algorithm will be used

 
     G-vector sticks info
     --------------------
     sticks:   dense  smooth     PW     G-vecs:    dense   smooth      PW
     Sum        9159    4575   1289              2014083   712267  105479
 
     Using Slab Decomposition
 


     bravais-lattice index     =            0
     lattice parameter (alat)  =      33.3357  a.u.
     unit-cell volume          =   11343.4638 (a.u.)^3
     number of atoms/cell      =           20
     number of atomic types    =            3
     number of electrons       =       220.00
     number of Kohn-Sham states=          132
     kinetic-energy cutoff     =      60.0000  Ry
     charge density cutoff     =     480.0000  Ry
     scf convergence threshold =      1.0E-08
     mixing beta               =       0.2000
     number of iterations used =            8  plain     mixing
     energy convergence thresh.=      1.0E-04
     force convergence thresh. =      1.0E-03
     Exchange-correlation= SLA PW PBX PBC
                           (   1   4   3   4   0   0   0)
     nstep                     =         2000


     GPU acceleration is ACTIVE.  1 visible GPUs per MPI rank
     GPU-aware MPI enabled


     celldm(1)=  33.335714  celldm(2)=   0.000000  celldm(3)=   0.000000
     celldm(4)=   0.000000  celldm(5)=   0.000000  celldm(6)=   0.000000

     crystal axes: (cart. coord. in units of alat)
               a(1) = (   1.000000   0.000000   0.000000 )  
               a(2) = (   0.000000   0.215759   0.000000 )  
               a(3) = (   0.000000   0.000000   1.419211 )  

     reciprocal axes: (cart. coord. in units 2 pi/alat)
               b(1) = (  1.000000  0.000000  0.000000 )  
               b(2) = (  0.000000  4.634797  0.000000 )  
               b(3) = (  0.000000  0.000000  0.704617 )  


     PseudoPot. # 1 for Ta read from file:
     /ddn/data/physics/eamoujaes/PSEUDO-CREATED/Ta.upf
     MD5 check sum: d865b2c2c09566b116f2b8decb2c153d
     Pseudo is Projector augmented-wave + core cor, Zval = 13.0
     Generated using ATOMPAW code
     Shape of augmentation charge: SINC**2
     Using radial grid of 2342 points,  6 beta functions with: 
                l(1) =   0
                l(2) =   0
                l(3) =   1
                l(4) =   1
                l(5) =   2
                l(6) =   2
     Q(r) pseudized with 0 coefficients 


     PseudoPot. # 2 for Ni read from file:
     /ddn/data/physics/eamoujaes/PSEUDO-CREATED/Ni.upf
     MD5 check sum: 85a2a5d9d38f4289a1cc30d5adb66a03
     Pseudo is Projector augmented-wave + core cor, Zval = 18.0
     Generated using ATOMPAW code
     Shape of augmentation charge: SINC**2
     Using radial grid of 2342 points,  6 beta functions with: 
                l(1) =   0
                l(2) =   0
                l(3) =   1
                l(4) =   1
                l(5) =   2
                l(6) =   2
     Q(r) pseudized with 0 coefficients 


     PseudoPot. # 3 for Te read from file:
     /ddn/data/physics/eamoujaes/PSEUDO-CREATED/Te.upf
     MD5 check sum: 8d958f193a7511a138982c2e72838810
     Pseudo is Projector augmented-wave + core cor, Zval =  6.0
     Generated using ATOMPAW code
     Shape of augmentation charge: SINC**2
     Using radial grid of 2342 points,  4 beta functions with: 
                l(1) =   0
                l(2) =   0
                l(3) =   1
                l(4) =   1
     Q(r) pseudized with 0 coefficients 


     atomic species   valence    mass     pseudopotential
     Ta               13.00   180.94790     Ta( 1.00)
     Ni               18.00    58.69340     Ni( 1.00)
     Te                6.00   127.60000     Te( 1.00)

     No symmetry found



   Cartesian axes

     site n.     atom                  positions (alat units)
         1        Ta     tau(   1) = (   0.8725286   0.0518649   0.7054131  )
         2        Ta     tau(   2) = (   0.3725263   0.1555948   0.7138118  )
         3        Ta     tau(   3) = (   0.1284065   0.0518649   0.7054032  )
         4        Ta     tau(   4) = (   0.6284092   0.1555948   0.7138208  )
         5        Ni     tau(   5) = (   0.7292542   0.0518649   0.6667436  )
         6        Ni     tau(   6) = (   0.2292509   0.1555948   0.7524812  )
         7        Ni     tau(   7) = (   0.2716741   0.0518649   0.6667284  )
         8        Ni     tau(   8) = (   0.7716766   0.1555948   0.7524957  )
         9        Ni     tau(   9) = (   0.5004590   0.0518649   0.7011256  )
        10        Ni     tau(  10) = (   0.0004579   0.1555948   0.7180981  )
        11        Te     tau(  11) = (   0.8057052   0.1555948   0.5972198  )
        12        Te     tau(  12) = (   0.3057012   0.0518649   0.8220046  )
        13        Te     tau(  13) = (   0.6006311   0.0518649   0.5963172  )
        14        Te     tau(  14) = (   0.1006292   0.1555948   0.8229072  )
        15        Te     tau(  15) = (   0.1952149   0.1555948   0.5972072  )
        16        Te     tau(  16) = (   0.6952178   0.0518649   0.8220171  )
        17        Te     tau(  17) = (   0.4003072   0.0518649   0.5963080  )
        18        Te     tau(  18) = (   0.9003091   0.1555948   0.8229170  )
        19        Te     tau(  19) = (   0.0004704   0.0518649   0.6143601  )
        20        Te     tau(  20) = (   0.5004710   0.1555948   0.8048626  )

     number of k points=    12  Gaussian smearing, width (Ry)=  0.0020
                       cart. coord. in units 2pi/alat
        k(    1) = (   0.0000000   0.0000000   0.0000000), wk =   0.1000000
        k(    2) = (   0.0000000   0.4634797   0.0000000), wk =   0.2000000
        k(    3) = (   0.0000000   0.9269594   0.0000000), wk =   0.2000000
        k(    4) = (   0.0000000   1.3904390   0.0000000), wk =   0.2000000
        k(    5) = (   0.0000000   1.8539187   0.0000000), wk =   0.2000000
        k(    6) = (   0.0000000  -2.3173984   0.0000000), wk =   0.1000000
        k(    7) = (  -0.5000000   0.0000000   0.0000000), wk =   0.1000000
        k(    8) = (  -0.5000000   0.4634797   0.0000000), wk =   0.2000000
        k(    9) = (  -0.5000000   0.9269594   0.0000000), wk =   0.2000000
        k(   10) = (  -0.5000000   1.3904390   0.0000000), wk =   0.2000000
        k(   11) = (  -0.5000000   1.8539187   0.0000000), wk =   0.2000000
        k(   12) = (  -0.5000000  -2.3173984   0.0000000), wk =   0.1000000

     Dense  grid:  2014083 G-vectors     FFT dimensions: ( 240,  54, 360)

     Smooth grid:   712267 G-vectors     FFT dimensions: ( 180,  36, 240)

     Estimated max dynamical RAM per process >      10.31 GB

     Initial potential from superposition of free atoms

     starting charge     219.9927, renormalised to     220.0000

     negative rho (up, down):  5.263E-02 0.000E+00
     Starting wfcs are  260 randomized atomic wfcs
     Checking if some PAW data can be deallocated... 

     total cpu time spent up to now is       66.4 secs

     Self-consistent Calculation

     iteration #  1     ecut=    60.00 Ry     beta= 0.20
     Davidson diagonalization with overlap
     ethr =  1.00E-02,  avg # of iterations =  2.8

     negative rho (up, down):  5.317E-02 0.000E+00

     total cpu time spent up to now is      103.5 secs

     total energy              =   -9107.97159965 Ry
     estimated scf accuracy    <       7.72033644 Ry

     iteration #  2     ecut=    60.00 Ry     beta= 0.20
     Davidson diagonalization with overlap
     ethr =  3.51E-03,  avg # of iterations =  2.8

     negative rho (up, down):  5.431E-02 0.000E+00

     total cpu time spent up to now is      140.7 secs

     total energy              =   -9108.03457229 Ry
     estimated scf accuracy    <      15.04505379 Ry

     iteration #  3     ecut=    60.00 Ry     beta= 0.20
     Davidson diagonalization with overlap
     ethr =  3.51E-03,  avg # of iterations =  1.3

     negative rho (up, down):  5.511E-02 0.000E+00

     total cpu time spent up to now is      177.9 secs

     total energy              =   -9109.84815463 Ry
     estimated scf accuracy    <       2.59001822 Ry

     iteration #  4     ecut=    60.00 Ry     beta= 0.20
     Davidson diagonalization with overlap
     ethr =  1.18E-03,  avg # of iterations =  1.3

     negative rho (up, down):  5.621E-02 0.000E+00

     total cpu time spent up to now is      214.6 secs

     total energy              =   -9109.92615443 Ry
     estimated scf accuracy    <       0.98057377 Ry

     iteration #  5     ecut=    60.00 Ry     beta= 0.20
     Davidson diagonalization with overlap
     ethr =  4.46E-04,  avg # of iterations =  1.1

     negative rho (up, down):  5.932E-02 0.000E+00

     total cpu time spent up to now is      251.4 secs

     total energy              =   -9109.80939663 Ry
     estimated scf accuracy    <       0.56747416 Ry

     iteration #  6     ecut=    60.00 Ry     beta= 0.20
     Davidson diagonalization with overlap
     ethr =  2.58E-04,  avg # of iterations =  3.0

     negative rho (up, down):  6.177E-02 0.000E+00

     total cpu time spent up to now is      288.5 secs

     total energy              =   -9109.85724020 Ry
     estimated scf accuracy    <       0.31992277 Ry

     iteration #  7     ecut=    60.00 Ry     beta= 0.20
     Davidson diagonalization with overlap
     ethr =  1.45E-04,  avg # of iterations =  4.3

     negative rho (up, down):  6.200E-02 0.000E+00

     total cpu time spent up to now is      325.8 secs

     total energy              =   -9109.85807424 Ry
     estimated scf accuracy    <       0.55345543 Ry

     iteration #  8     ecut=    60.00 Ry     beta= 0.20
     Davidson diagonalization with overlap
     ethr =  1.45E-04,  avg # of iterations =  1.0

     negative rho (up, down):  6.220E-02 0.000E+00

     total cpu time spent up to now is      363.0 secs

     total energy              =   -9109.85171116 Ry
     estimated scf accuracy    <       0.11475415 Ry

     iteration #  9     ecut=    60.00 Ry     beta= 0.20
     Davidson diagonalization with overlap
     ethr =  5.22E-05,  avg # of iterations =  2.3

     negative rho (up, down):  6.260E-02 0.000E+00

     total cpu time spent up to now is      400.1 secs

     total energy              =   -9109.86574200 Ry
     estimated scf accuracy    <       0.02117750 Ry

     iteration # 10     ecut=    60.00 Ry     beta= 0.20
     Davidson diagonalization with overlap
     c_bands:  1 eigenvalues not converged
     ethr =  9.63E-06,  avg # of iterations = 10.3

     negative rho (up, down):  6.374E-02 0.000E+00

     total cpu time spent up to now is      438.2 secs

     total energy              =   -9109.86510692 Ry
     estimated scf accuracy    <       0.02253532 Ry

     iteration # 11     ecut=    60.00 Ry     beta= 0.20
     Davidson diagonalization with overlap
     c_bands:  1 eigenvalues not converged
     ethr =  9.63E-06,  avg # of iterations =  2.6

     negative rho (up, down):  6.460E-02 0.000E+00

     total cpu time spent up to now is      475.8 secs

     total energy              =   -9109.86402567 Ry
     estimated scf accuracy    <       0.01409145 Ry

     iteration # 12     ecut=    60.00 Ry     beta= 0.20
     Davidson diagonalization with overlap
     ethr =  6.41E-06,  avg # of iterations =  2.1

     negative rho (up, down):  6.490E-02 0.000E+00

     total cpu time spent up to now is      512.9 secs

     total energy              =   -9109.86485059 Ry
     estimated scf accuracy    <       0.00152678 Ry

     iteration # 13     ecut=    60.00 Ry     beta= 0.20
     Davidson diagonalization with overlap
     ethr =  6.94E-07,  avg # of iterations =  3.5

     negative rho (up, down):  6.507E-02 0.000E+00

     total cpu time spent up to now is      550.3 secs

     total energy              =   -9109.86497726 Ry
     estimated scf accuracy    <       0.00040685 Ry

     iteration # 14     ecut=    60.00 Ry     beta= 0.20
     Davidson diagonalization with overlap
     ethr =  1.85E-07,  avg # of iterations =  2.0

     negative rho (up, down):  6.515E-02 0.000E+00

     total cpu time spent up to now is      587.5 secs

     total energy              =   -9109.86501395 Ry
     estimated scf accuracy    <       0.00011082 Ry

     iteration # 15     ecut=    60.00 Ry     beta= 0.20
     Davidson diagonalization with overlap
     ethr =  5.04E-08,  avg # of iterations =  2.2

     negative rho (up, down):  6.525E-02 0.000E+00

     total cpu time spent up to now is      624.7 secs

     total energy              =   -9109.86502029 Ry
     estimated scf accuracy    <       0.00008972 Ry

     iteration # 16     ecut=    60.00 Ry     beta= 0.20
     Davidson diagonalization with overlap
     ethr =  4.08E-08,  avg # of iterations =  1.5

     negative rho (up, down):  6.524E-02 0.000E+00

     total cpu time spent up to now is      661.5 secs

     total energy              =   -9109.86502034 Ry
     estimated scf accuracy    <       0.00004798 Ry

     iteration # 17     ecut=    60.00 Ry     beta= 0.20
     Davidson diagonalization with overlap
     ethr =  2.18E-08,  avg # of iterations =  1.8

     negative rho (up, down):  6.529E-02 0.000E+00

     total cpu time spent up to now is      698.6 secs

     total energy              =   -9109.86502481 Ry
     estimated scf accuracy    <       0.00003809 Ry

     iteration # 18     ecut=    60.00 Ry     beta= 0.20
     Davidson diagonalization with overlap
     ethr =  1.73E-08,  avg # of iterations =  1.0

     negative rho (up, down):  6.526E-02 0.000E+00

     total cpu time spent up to now is      735.8 secs

     total energy              =   -9109.86502724 Ry
     estimated scf accuracy    <       0.00000364 Ry

     iteration # 19     ecut=    60.00 Ry     beta= 0.20
     Davidson diagonalization with overlap
     ethr =  1.65E-09,  avg # of iterations =  2.8

     negative rho (up, down):  6.523E-02 0.000E+00

     total cpu time spent up to now is      773.3 secs

     total energy              =   -9109.86502733 Ry
     estimated scf accuracy    <       0.00000467 Ry

     iteration # 20     ecut=    60.00 Ry     beta= 0.20
     Davidson diagonalization with overlap
     ethr =  1.65E-09,  avg # of iterations =  1.0

     negative rho (up, down):  6.521E-02 0.000E+00

     total cpu time spent up to now is      810.5 secs

     total energy              =   -9109.86502740 Ry
     estimated scf accuracy    <       0.00000224 Ry

     iteration # 21     ecut=    60.00 Ry     beta= 0.20
     Davidson diagonalization with overlap
     ethr =  1.02E-09,  avg # of iterations =  1.0

     negative rho (up, down):  6.517E-02 0.000E+00

     total cpu time spent up to now is      847.2 secs

     total energy              =   -9109.86502743 Ry
     estimated scf accuracy    <       0.00000080 Ry

     iteration # 22     ecut=    60.00 Ry     beta= 0.20
     Davidson diagonalization with overlap
     ethr =  3.64E-10,  avg # of iterations =  2.0

     negative rho (up, down):  6.516E-02 0.000E+00

     total cpu time spent up to now is      884.4 secs

     total energy              =   -9109.86502749 Ry
     estimated scf accuracy    <       0.00000070 Ry

     iteration # 23     ecut=    60.00 Ry     beta= 0.20
     Davidson diagonalization with overlap
     ethr =  3.19E-10,  avg # of iterations =  1.0

     negative rho (up, down):  6.514E-02 0.000E+00

     total cpu time spent up to now is      921.4 secs

     total energy              =   -9109.86502753 Ry
     estimated scf accuracy    <       0.00000016 Ry

     iteration # 24     ecut=    60.00 Ry     beta= 0.20
     Davidson diagonalization with overlap
     ethr =  7.32E-11,  avg # of iterations =  2.0

     negative rho (up, down):  6.513E-02 0.000E+00

     total cpu time spent up to now is      958.6 secs

     total energy              =   -9109.86502756 Ry
     estimated scf accuracy    <       0.00000007 Ry

     iteration # 25     ecut=    60.00 Ry     beta= 0.20
     Davidson diagonalization with overlap
     ethr =  3.33E-11,  avg # of iterations =  2.0

     negative rho (up, down):  6.512E-02 0.000E+00

     total cpu time spent up to now is      996.0 secs

     total energy              =   -9109.86502757 Ry
     estimated scf accuracy    <       0.00000002 Ry

     iteration # 26     ecut=    60.00 Ry     beta= 0.20
     Davidson diagonalization with overlap
     ethr =  1.08E-11,  avg # of iterations =  2.0

     negative rho (up, down):  6.510E-02 0.000E+00

     total cpu time spent up to now is     1032.7 secs

     End of self-consistent calculation

          k = 0.0000 0.0000 0.0000 ( 88895 PWs)   bands (ev):

  -103.4574-103.4574-103.4486-103.4486-103.0720-103.0720 -69.0244 -69.0243
   -69.0241 -69.0241 -64.0365 -64.0364 -64.0343 -64.0339 -63.8655 -63.8654
   -63.8155 -63.8153 -63.7343 -63.7342 -63.7035 -63.7034 -63.5776 -63.5775
   -63.5245 -63.5245 -63.3585 -63.3585 -35.4916 -35.4911 -35.4907 -35.4902
   -35.4471 -35.4471 -35.4470 -35.4469 -35.4153 -35.4120 -35.4114 -35.4079
   -12.9128 -12.6150 -12.5377 -12.1087 -12.0291 -11.8914 -11.8153 -11.7861
   -11.6703 -11.4932  -6.1750  -5.9206  -5.7208  -5.6802  -5.4359  -5.3947
    -5.3494  -4.7525  -4.6199  -4.2406  -4.1271  -3.9042  -3.8700  -3.8077
    -3.7195  -3.7136  -3.6750  -3.6273  -3.4528  -3.4490  -3.1078  -3.0667
    -2.9663  -2.8888  -2.7580  -2.7239  -2.7056  -2.6478  -2.4818  -2.4041
    -2.3373  -2.2584  -2.2519  -2.1312  -2.1300  -2.0539  -1.9574  -1.9557
    -1.8076  -1.7922  -1.7158  -1.6285  -1.5817  -1.5327  -1.5196  -1.4163
    -1.3673  -1.3643  -1.3082  -1.2602  -1.1509  -1.0222  -0.9431  -0.8737
    -0.8629  -0.6477  -0.5691  -0.5573  -0.4450  -0.3197  -0.1150  -0.1100
     0.3958   0.6601   0.6846   0.8836   1.0255   1.1265   1.2596   1.3459
     1.3883   1.5503   1.8005   1.9124   1.9231   2.3920   2.7260   2.7615
     2.8255   2.8472   3.0382   3.1464

          k = 0.0000 0.4635 0.0000 ( 88891 PWs)   bands (ev):

  -103.4572-103.4572-103.4488-103.4488-103.0720-103.0720 -69.0243 -69.0243
   -69.0240 -69.0240 -64.0366 -64.0365 -64.0342 -64.0340 -63.8646 -63.8646
   -63.8171 -63.8171 -63.7329 -63.7329 -63.7039 -63.7038 -63.5777 -63.5775
   -63.5245 -63.5245 -63.3585 -63.3584 -35.4912 -35.4907 -35.4903 -35.4898
   -35.4513 -35.4512 -35.4511 -35.4510 -35.4148 -35.4116 -35.4109 -35.4076
   -12.8313 -12.5356 -12.4677 -12.0681 -11.9722 -11.8563 -11.7681 -11.7458
   -11.6284 -11.4673  -6.1042  -5.8538  -5.6419  -5.5927  -5.3832  -5.3315
    -5.2633  -4.6881  -4.5694  -4.2151  -4.1236  -4.0201  -3.9399  -3.9063
    -3.8710  -3.7751  -3.7105  -3.6634  -3.4266  -3.3778  -3.2409  -3.1445
    -2.9895  -2.8861  -2.8856  -2.8231  -2.8176  -2.8054  -2.7062  -2.4005
    -2.3913  -2.3433  -2.3149  -2.2626  -2.1718  -2.1176  -1.9847  -1.9227
    -1.8998  -1.8926  -1.8406  -1.8158  -1.7027  -1.6114  -1.5569  -1.5313
    -1.4219  -1.4212  -1.2902  -1.1565  -1.1316  -1.0873  -1.0704  -0.8488
    -0.7755  -0.7417  -0.7131  -0.5910  -0.4000  -0.3742  -0.0344   0.1249
     0.3663   0.5331   0.7778   0.8712   0.9983   1.0050   1.2096   1.3876
     1.3903   1.5341   1.6155   1.7589   2.0565   2.2447   2.3568   2.3839
     2.5352   2.5831   3.0777   3.3021

          k = 0.0000 0.9270 0.0000 ( 88990 PWs)   bands (ev):

  -103.4566-103.4566-103.4494-103.4493-103.0720-103.0720 -69.0241 -69.0240
   -69.0238 -69.0238 -64.0366 -64.0364 -64.0344 -64.0344 -63.8624 -63.8623
   -63.8220 -63.8220 -63.7295 -63.7295 -63.7051 -63.7050 -63.5778 -63.5774
   -63.5246 -63.5245 -63.3588 -63.3587 -35.4905 -35.4901 -35.4896 -35.4892
   -35.4620 -35.4618 -35.4616 -35.4614 -35.4134 -35.4106 -35.4096 -35.4069
   -12.5988 -12.3104 -12.2727 -11.9541 -11.8243 -11.7686 -11.6316 -11.6309
   -11.5198 -11.3995  -5.9393  -5.6958  -5.4474  -5.3995  -5.2540  -5.1634
    -5.0494  -4.6712  -4.5604  -4.3285  -4.2391  -4.1959  -4.1118  -4.0955
    -4.0417  -3.9331  -3.9054  -3.7364  -3.6601  -3.6081  -3.3307  -3.3089
    -3.3070  -3.1621  -3.1046  -3.0180  -2.9773  -2.8322  -2.7366  -2.7251
    -2.5958  -2.5513  -2.4808  -2.4166  -2.3066  -2.2039  -2.1335  -2.1234
    -2.0813  -1.9596  -1.8685  -1.8127  -1.7827  -1.6661  -1.6248  -1.6113
    -1.5804  -1.4743  -1.4702  -1.2023  -1.1522  -1.0834  -1.0689  -1.0614
    -0.9441  -0.9158  -0.7990  -0.6326  -0.5667  -0.5062   0.2530   0.3785
     0.4198   0.7383   0.7388   0.7987   0.9454   0.9710   1.0271   1.1584
     1.4832   1.5014   1.5210   1.7997   1.8761   2.1222   2.1329   2.2222
     2.3802   2.4458   3.5113   3.6138

          k = 0.0000 1.3904 0.0000 ( 89056 PWs)   bands (ev):

  -103.4558-103.4558-103.4502-103.4502-103.0720-103.0720 -69.0238 -69.0237
   -69.0236 -69.0235 -64.0364 -64.0364 -64.0346 -64.0346 -63.8587 -63.8587
   -63.8287 -63.8287 -63.7250 -63.7249 -63.7070 -63.7070 -63.5777 -63.5774
   -63.5245 -63.5245 -63.3591 -63.3590 -35.4912 -35.4910 -35.4905 -35.4902
   -35.4735 -35.4734 -35.4729 -35.4727 -35.4114 -35.4094 -35.4080 -35.4060
   -12.2550 -12.0054 -11.9839 -11.7851 -11.6669 -11.6443 -11.4796 -11.4319
   -11.3996 -11.3169  -5.8738  -5.6623  -5.4788  -5.4671  -5.1465  -5.0855
    -5.0199  -4.8602  -4.7693  -4.5632  -4.4526  -4.4241  -4.2484  -4.1494
    -4.1197  -4.0160  -3.9523  -3.8866  -3.7771  -3.6490  -3.5246  -3.5202
    -3.3865  -3.2955  -3.1745  -3.1629  -3.1302  -2.9877  -2.8318  -2.7469
    -2.7218  -2.7158  -2.5581  -2.5495  -2.3793  -2.2485  -2.2206  -2.2041
    -2.1963  -2.0754  -2.0004  -1.9769  -1.8476  -1.7591  -1.7087  -1.6339
    -1.5851  -1.5551  -1.5405  -1.4441  -1.2404  -1.2189  -1.2189  -1.1811
    -1.0267  -1.0078  -0.9130  -0.7639  -0.7348  -0.6969   0.2364   0.3621
     0.5285   0.7564   0.8625   0.9212   1.0534   1.0881   1.1215   1.1852
     1.4333   1.5748   1.5752   1.8955   1.9601   2.1093   2.2846   2.3703
     2.5256   2.6040   3.2245   3.3007

          k = 0.0000 1.8539 0.0000 ( 89176 PWs)   bands (ev):

  -103.4548-103.4548-103.4512-103.4512-103.0720-103.0720 -69.0236 -69.0235
   -69.0234 -69.0233 -64.0365 -64.0364 -64.0350 -64.0348 -63.8543 -63.8542
   -63.8356 -63.8356 -63.7204 -63.7204 -63.7097 -63.7097 -63.5778 -63.5776
   -63.5246 -63.5245 -63.3594 -63.3593 -35.4958 -35.4956 -35.4952 -35.4949
   -35.4789 -35.4788 -35.4780 -35.4778 -35.4097 -35.4086 -35.4064 -35.4054
   -11.8835 -11.7761 -11.6488 -11.5882 -11.5771 -11.4950 -11.3704 -11.3596
   -11.2627 -11.2537  -6.0619  -6.0019  -5.9521  -5.9461  -5.2932  -5.2020
    -5.0565  -4.9919  -4.8100  -4.7013  -4.4192  -4.3271  -4.3033  -4.0415
    -4.0096  -3.8911  -3.7744  -3.7532  -3.7086  -3.6808  -3.5008  -3.4820
    -3.4559  -3.4168  -3.3497  -3.3306  -3.0876  -3.0701  -2.9639  -2.9420
    -2.6862  -2.6835  -2.5913  -2.5838  -2.3628  -2.3283  -2.2648  -2.2395
    -2.1870  -2.1678  -2.1116  -2.0178  -2.0018  -1.8902  -1.8600  -1.7469
    -1.5864  -1.5756  -1.5289  -1.5123  -1.3930  -1.3511  -1.3047  -1.2830
    -1.1455  -1.0801  -1.0428  -0.9093  -0.8927  -0.8274   0.1088   0.2020
     0.6691   0.8761   0.8868   0.9724   0.9795   1.3889   1.4299   1.4346
     1.5201   1.5472   1.6902   1.8166   1.9093   2.2263   2.3784   2.5244
     2.7558   2.8966   2.9505   2.9815

          k = 0.0000-2.3174 0.0000 ( 89158 PWs)   bands (ev):

  -103.4543-103.4543-103.4517-103.4517-103.0720-103.0720 -69.0235 -69.0234
   -69.0233 -69.0233 -64.0363 -64.0363 -64.0351 -64.0349 -63.8513 -63.8513
   -63.8392 -63.8391 -63.7179 -63.7178 -63.7115 -63.7115 -63.5777 -63.5776
   -63.5246 -63.5245 -63.3594 -63.3593 -35.4987 -35.4985 -35.4981 -35.4979
   -35.4797 -35.4796 -35.4788 -35.4786 -35.4088 -35.4085 -35.4056 -35.4053
   -11.6903 -11.6851 -11.5108 -11.4724 -11.4482 -11.4468 -11.4176 -11.3772
   -11.2241 -11.2187  -6.2042  -6.1779  -6.1766  -6.1533  -5.4378  -5.3743
    -5.0256  -5.0213  -4.8435  -4.8402  -4.2492  -4.2257  -4.0655  -4.0304
    -3.9563  -3.8998  -3.7067  -3.6323  -3.5934  -3.5886  -3.5537  -3.5404
    -3.5349  -3.5321  -3.2830  -3.2515  -3.1961  -3.1486  -3.0469  -3.0133
    -2.6466  -2.6122  -2.6072  -2.5433  -2.3650  -2.3649  -2.2772  -2.2477
    -2.2355  -2.2260  -2.0528  -2.0480  -1.9909  -1.9560  -1.9336  -1.8684
    -1.6060  -1.5997  -1.4653  -1.4565  -1.4356  -1.4233  -1.3497  -1.3494
    -1.2405  -1.2137  -1.0776  -1.0540  -0.8920  -0.8207   0.0925   0.1431
     0.7491   0.7861   0.9359   0.9450   1.0761   1.2364   1.4323   1.4394
     1.7476   1.7599   1.7722   1.7776   1.9806   2.0768   2.3560   2.4050
     2.7268   2.7902   3.0101   3.1751

          k =-0.5000 0.0000 0.0000 ( 88946 PWs)   bands (ev):

  -103.4574-103.4574-103.4486-103.4486-103.0720-103.0720 -69.0244 -69.0243
   -69.0241 -69.0241 -64.0367 -64.0367 -64.0342 -64.0342 -63.8655 -63.8655
   -63.8154 -63.8154 -63.7342 -63.7342 -63.7034 -63.7034 -63.5777 -63.5777
   -63.5245 -63.5244 -63.3585 -63.3585 -35.4914 -35.4914 -35.4904 -35.4903
   -35.4471 -35.4471 -35.4469 -35.4469 -35.4143 -35.4143 -35.4090 -35.4090
   -12.8255 -12.8254 -12.2337 -12.2337 -12.0507 -12.0506 -11.7508 -11.7508
   -11.5689 -11.5689  -6.0824  -6.0823  -5.7213  -5.7213  -5.3877  -5.3877
    -5.0115  -5.0115  -4.5679  -4.5679  -3.9082  -3.9082  -3.8138  -3.8138
    -3.6847  -3.6847  -3.5442  -3.5442  -3.4533  -3.4533  -3.2562  -3.2561
    -3.0017  -3.0017  -2.7174  -2.7174  -2.6554  -2.6554  -2.4070  -2.4070
    -2.3530  -2.3530  -2.1744  -2.1743  -2.0566  -2.0566  -1.8932  -1.8932
    -1.8423  -1.8422  -1.6502  -1.6502  -1.5993  -1.5993  -1.4306  -1.4305
    -1.3961  -1.3960  -1.2838  -1.2838  -1.0855  -1.0855  -0.8954  -0.8954
    -0.7496  -0.7496  -0.4928  -0.4928  -0.4573  -0.4573  -0.1105  -0.1105
     0.5340   0.5340   0.8098   0.8098   1.1355   1.1355   1.1785   1.1785
     1.4103   1.4104   1.8665   1.8665   2.1663   2.1663   2.7554   2.7555
     2.9033   2.9033   2.9933   2.9933

          k =-0.5000 0.4635 0.0000 ( 88940 PWs)   bands (ev):

  -103.4572-103.4572-103.4488-103.4488-103.0720-103.0720 -69.0243 -69.0243
   -69.0240 -69.0240 -64.0366 -64.0366 -64.0343 -64.0342 -63.8647 -63.8646
   -63.8171 -63.8171 -63.7330 -63.7329 -63.7038 -63.7038 -63.5777 -63.5776
   -63.5245 -63.5245 -63.3585 -63.3585 -35.4910 -35.4910 -35.4900 -35.4900
   -35.4513 -35.4513 -35.4510 -35.4510 -35.4138 -35.4138 -35.4087 -35.4087
   -12.7454 -12.7454 -12.1665 -12.1665 -12.0123 -12.0123 -11.7093 -11.7093
   -11.5367 -11.5367  -6.0104  -6.0104  -5.6394  -5.6394  -5.3215  -5.3214
    -4.9563  -4.9563  -4.5239  -4.5239  -4.0162  -4.0162  -3.8976  -3.8976
    -3.7014  -3.7014  -3.5645  -3.5645  -3.5225  -3.5225  -3.2025  -3.2025
    -3.1136  -3.1135  -2.8194  -2.8194  -2.7807  -2.7806  -2.5913  -2.5913
    -2.3313  -2.3313  -2.2864  -2.2864  -2.1009  -2.1009  -2.0005  -2.0005
    -1.8714  -1.8713  -1.8226  -1.8226  -1.6656  -1.6656  -1.5397  -1.5396
    -1.3951  -1.3951  -1.2537  -1.2537  -1.0724  -1.0724  -0.9288  -0.9288
    -0.8153  -0.8152  -0.6812  -0.6812  -0.3301  -0.3300   0.0368   0.0369
     0.4650   0.4651   0.8793   0.8793   1.0576   1.0576   1.1434   1.1434
     1.4036   1.4036   1.7621   1.7621   2.0660   2.0660   2.4299   2.4299
     2.5269   2.5269   3.2152   3.2153

          k =-0.5000 0.9270 0.0000 ( 89000 PWs)   bands (ev):

  -103.4566-103.4566-103.4494-103.4493-103.0720-103.0720 -69.0241 -69.0240
   -69.0238 -69.0238 -64.0365 -64.0365 -64.0344 -64.0344 -63.8624 -63.8624
   -63.8220 -63.8220 -63.7295 -63.7295 -63.7051 -63.7051 -63.5776 -63.5776
   -63.5246 -63.5245 -63.3588 -63.3587 -35.4903 -35.4903 -35.4894 -35.4894
   -35.4620 -35.4619 -35.4615 -35.4615 -35.4125 -35.4124 -35.4078 -35.4078
   -12.5178 -12.5178 -11.9814 -11.9814 -11.9060 -11.9060 -11.6015 -11.6015
   -11.4485 -11.4485  -5.8392  -5.8391  -5.4297  -5.4297  -5.1737  -5.1736
    -4.9057  -4.9057  -4.4610  -4.4610  -4.2326  -4.2326  -4.1545  -4.1544
    -3.8211  -3.8211  -3.7247  -3.7247  -3.6604  -3.6604  -3.3970  -3.3969
    -3.2853  -3.2853  -3.0515  -3.0515  -2.8900  -2.8900  -2.7785  -2.7785
    -2.5836  -2.5836  -2.4727  -2.4727  -2.2080  -2.2080  -2.1412  -2.1412
    -2.0200  -2.0200  -1.8535  -1.8535  -1.6984  -1.6983  -1.6171  -1.6170
    -1.4708  -1.4708  -1.3763  -1.3763  -1.1787  -1.1787  -1.0604  -1.0604
    -0.9515  -0.9514  -0.6465  -0.6465  -0.5013  -0.5013   0.2890   0.2890
     0.5597   0.5598   0.7945   0.7945   1.0498   1.0498   1.1373   1.1373
     1.3108   1.3108   1.6440   1.6440   2.0069   2.0069   2.2137   2.2137
     2.3814   2.3815   3.5816   3.5820

          k =-0.5000 1.3904 0.0000 ( 89046 PWs)   bands (ev):

  -103.4558-103.4558-103.4502-103.4502-103.0720-103.0720 -69.0238 -69.0237
   -69.0236 -69.0235 -64.0364 -64.0364 -64.0346 -64.0346 -63.8586 -63.8586
   -63.8287 -63.8287 -63.7249 -63.7249 -63.7070 -63.7070 -63.5776 -63.5776
   -63.5245 -63.5245 -63.3591 -63.3590 -35.4911 -35.4911 -35.4903 -35.4903
   -35.4735 -35.4734 -35.4728 -35.4728 -35.4107 -35.4107 -35.4067 -35.4067
   -12.1850 -12.1850 -11.7708 -11.7707 -11.7205 -11.7205 -11.4734 -11.4734
   -11.3346 -11.3346  -5.7885  -5.7884  -5.3732  -5.3732  -5.2243  -5.2243
    -5.0134  -5.0134  -4.5696  -4.5695  -4.4658  -4.4658  -4.1441  -4.1441
    -4.0324  -4.0324  -3.9462  -3.9462  -3.7026  -3.7026  -3.5803  -3.5803
    -3.2807  -3.2807  -3.1404  -3.1404  -3.0715  -3.0715  -2.8934  -2.8934
    -2.6731  -2.6731  -2.5920  -2.5920  -2.3190  -2.3190  -2.1950  -2.1949
    -2.1519  -2.1519  -2.0033  -2.0033  -1.7373  -1.7373  -1.6806  -1.6805
    -1.5473  -1.5473  -1.5163  -1.5163  -1.2643  -1.2642  -1.1850  -1.1850
    -1.0158  -1.0157  -0.8424  -0.8423  -0.7065  -0.7065   0.2746   0.2747
     0.7423   0.7424   0.9277   0.9277   1.0650   1.0650   1.1387   1.1387
     1.4378   1.4378   1.6437   1.6437   2.1638   2.1638   2.3243   2.3243
     2.4547   2.4548   3.3091   3.3095

          k =-0.5000 1.8539 0.0000 ( 89136 PWs)   bands (ev):

  -103.4548-103.4548-103.4512-103.4512-103.0720-103.0720 -69.0236 -69.0235
   -69.0234 -69.0233 -64.0364 -64.0364 -64.0349 -64.0349 -63.8542 -63.8542
   -63.8355 -63.8355 -63.7204 -63.7203 -63.7097 -63.7097 -63.5776 -63.5776
   -63.5245 -63.5245 -63.3594 -63.3593 -35.4957 -35.4957 -35.4950 -35.4950
   -35.4789 -35.4788 -35.4779 -35.4779 -35.4093 -35.4092 -35.4058 -35.4058
   -11.8404 -11.8404 -11.6248 -11.6248 -11.5053 -11.5053 -11.3852 -11.3852
   -11.2519 -11.2519  -6.1011  -6.1011  -5.8397  -5.8397  -5.3077  -5.3077
    -5.0292  -5.0292  -4.7531  -4.7531  -4.3780  -4.3780  -4.1799  -4.1799
    -3.9368  -3.9368  -3.8008  -3.8008  -3.6385  -3.6385  -3.5122  -3.5122
    -3.4244  -3.4244  -3.2760  -3.2759  -3.0728  -3.0728  -2.9337  -2.9337
    -2.7675  -2.7675  -2.5528  -2.5528  -2.4252  -2.4251  -2.2541  -2.2541
    -2.1723  -2.1723  -2.0905  -2.0905  -1.8649  -1.8649  -1.7878  -1.7878
    -1.6061  -1.6060  -1.5233  -1.5232  -1.3954  -1.3953  -1.2428  -1.2428
    -1.1603  -1.1603  -0.9934  -0.9934  -0.8387  -0.8387   0.1566   0.1566
     0.7780   0.7780   1.0067   1.0067   1.1760   1.1761   1.4036   1.4036
     1.5168   1.5169   1.7250   1.7250   2.0161   2.0161   2.5771   2.5772
     2.6496   2.6496   2.9999   2.9999

          k =-0.5000-2.3174 0.0000 ( 89104 PWs)   bands (ev):

  -103.4543-103.4543-103.4517-103.4517-103.0720-103.0720 -69.0235 -69.0234
   -69.0233 -69.0233 -64.0363 -64.0362 -64.0349 -64.0348 -63.8514 -63.8514
   -63.8392 -63.8392 -63.7177 -63.7177 -63.7114 -63.7114 -63.5775 -63.5775
   -63.5245 -63.5244 -63.3595 -63.3594 -35.4987 -35.4986 -35.4980 -35.4980
   -35.4797 -35.4797 -35.4787 -35.4787 -35.4087 -35.4086 -35.4055 -35.4055
   -11.6872 -11.6872 -11.4968 -11.4968 -11.4470 -11.4470 -11.3937 -11.3937
   -11.2208 -11.2208  -6.2935  -6.2935  -6.0297  -6.0297  -5.4364  -5.4364
    -5.0036  -5.0036  -4.8845  -4.8845  -4.1868  -4.1868  -4.1435  -4.1435
    -3.8596  -3.8596  -3.6837  -3.6837  -3.6237  -3.6237  -3.5630  -3.5629
    -3.4728  -3.4728  -3.3639  -3.3639  -3.0258  -3.0258  -2.9020  -2.9020
    -2.8124  -2.8124  -2.5375  -2.5375  -2.4285  -2.4284  -2.2848  -2.2848
    -2.2393  -2.2393  -2.0146  -2.0146  -1.9421  -1.9421  -1.8779  -1.8779
    -1.6319  -1.6319  -1.4674  -1.4674  -1.4499  -1.4499  -1.2947  -1.2947
    -1.2732  -1.2732  -1.0633  -1.0633  -0.8541  -0.8541   0.1239   0.1240
     0.7978   0.7978   0.9850   0.9850   1.0987   1.0987   1.4535   1.4535
     1.7718   1.7718   1.8248   1.8248   1.8740   1.8741   2.4719   2.4719
     2.6211   2.6211   3.2083   3.2085

     the Fermi energy is    -0.2181 ev

!    total energy              =   -9109.86502757 Ry
     total all-electron energy =     -9109.865028 Ry
     estimated scf accuracy    <          7.5E-09 Ry
     smearing contrib. (-TS)   =      -0.00000000 Ry
     internal energy E=F+TS    =   -9109.86502757 Ry

     The total energy is F=E-TS. E is the sum of the following terms:
     one-electron contribution =  -15863.00118963 Ry
     hartree contribution      =    7788.77038410 Ry
     xc contribution           =    -364.43008816 Ry
     ewald contribution        =    5596.45075286 Ry
     one-center paw contrib.   =   -6267.65488675 Ry

     convergence has been achieved in  26 iterations

     negative rho (up, down):  6.510E-02 0.000E+00

     Forces acting on atoms (cartesian axes, Ry/au):

     atom    1 type  1   force =    -0.00669877   -0.01835395    0.00905883
     atom    2 type  1   force =    -0.00672817    0.01832332   -0.00906325
     atom    3 type  1   force =     0.00670382   -0.01836045    0.00908865
     atom    4 type  1   force =     0.00672011    0.01834582   -0.00908389
     atom    5 type  2   force =     0.00388610   -0.02016983    0.00672314
     atom    6 type  2   force =     0.00382095    0.02020344   -0.00669219
     atom    7 type  2   force =    -0.00382520   -0.02017184    0.00671548
     atom    8 type  2   force =    -0.00379300    0.02021246   -0.00677893
     atom    9 type  2   force =     0.00002436   -0.00865612    0.00707541
     atom   10 type  2   force =     0.00001502    0.00865997   -0.00705856
     atom   11 type  3   force =    -0.00264427    0.01423294    0.01651686
     atom   12 type  3   force =    -0.00263517   -0.01423724   -0.01651565
     atom   13 type  3   force =     0.00288889   -0.00938600    0.01469250
     atom   14 type  3   force =     0.00288777    0.00937841   -0.01469276
     atom   15 type  3   force =     0.00267330    0.01423231    0.01651367
     atom   16 type  3   force =     0.00266777   -0.01423858   -0.01651022
     atom   17 type  3   force =    -0.00293291   -0.00938733    0.01469534
     atom   18 type  3   force =    -0.00293561    0.00938017   -0.01468908
     atom   19 type  3   force =    -0.00004616   -0.00859442    0.01027117
     atom   20 type  3   force =    -0.00004882    0.00858692   -0.01026652

     Total force =     0.086681     Total SCF correction =     0.000343


     Computing stress (Cartesian axis) and pressure


     negative rho (up, down):  6.510E-02 0.000E+00
          total   stress  (Ry/bohr**3)                   (kbar)     P=      -11.37
  -0.00003316   0.00000000  -0.00000000           -4.88        0.00       -0.00
   0.00000000  -0.00010991   0.00001000            0.00      -16.17        1.47
  -0.00000000   0.00001000  -0.00008889           -0.00        1.47      -13.08


     BFGS Geometry Optimization
     Energy error            =      0.0E+00 Ry
     Gradient error          =      2.0E-02 Ry/Bohr

     number of scf cycles    =   1
     number of bfgs steps    =   0

     energy             new  =   -9109.8650275688 Ry

     new trust radius        =       0.0219645572 bohr
     new conv_thr            =       0.0000000100 Ry


ATOMIC_POSITIONS (angstrom)
Ta              15.3882959888        0.9052110714       12.4486339601
Ta               6.5679901188        2.7544659657       12.5872002697
Ta               2.2687031221        0.9052076305       12.4484754653
Ta              11.0890094761        2.7544778698       12.5873494996
Ni              12.8664645924        0.9042501506       11.7652473293
Ni               4.0461220881        2.7554608799       13.2706025960
Ni               4.7904425130        0.9042490880       11.7649766352
Ni              13.6107534432        2.7554656548       13.2708137538
Ni               8.8283595553        0.9103429403       12.3719497437
Ni               0.0080848483        2.7493523373       12.6638745854
Te              14.2116430887        2.7523014296       10.5439970958
Te               5.3913273820        0.9073895416       14.4918323992
Te              10.5969618509        0.9099567090       10.5271088145
Te               1.7766782250        2.7497325216       14.5087198840
Te               3.4451033431        2.7523010963       10.5437722010
Te              12.2654012609        0.9073888306       14.4920557133
Te               7.0600663923        0.9099560051       10.5269477088
Te              15.8803484494        2.7497334533       14.5088940006
Te               0.0082744966        0.9103755957       10.8430543368
Te               8.8285321284        2.7493136827       14.1927450078



     Writing config-only to output data dir /ddn/data/physics/eamoujaes/2D-Ta2Ni3Te5/ELASTIC/C22/OUT/ta2ni3te5.save/ :
     XML data file
     NEW-OLD atomic charge density approx. for the potential

     negative rho (up, down):  6.556E-02 0.000E+00

     total cpu time spent up to now is     1127.7 secs

     Self-consistent Calculation

     iteration #  1     ecut=    60.00 Ry     beta= 0.20
     Davidson diagonalization with overlap
     ethr =  1.00E-06,  avg # of iterations =  7.0

     negative rho (up, down):  6.546E-02 0.000E+00

     total cpu time spent up to now is     1167.7 secs

     total energy              =   -9109.87070642 Ry
     estimated scf accuracy    <       0.00325677 Ry

     iteration #  2     ecut=    60.00 Ry     beta= 0.20
     Davidson diagonalization with overlap
     ethr =  1.48E-06,  avg # of iterations =  3.8

     negative rho (up, down):  6.545E-02 0.000E+00

     total cpu time spent up to now is     1205.2 secs

     total energy              =   -9109.87094163 Ry
     estimated scf accuracy    <       0.01677520 Ry

     iteration #  3     ecut=    60.00 Ry     beta= 0.20
     Davidson diagonalization with overlap
     ethr =  1.48E-06,  avg # of iterations =  2.0

     negative rho (up, down):  6.543E-02 0.000E+00

     total cpu time spent up to now is     1242.2 secs

     total energy              =   -9109.87177719 Ry
     estimated scf accuracy    <       0.00091222 Ry

     iteration #  4     ecut=    60.00 Ry     beta= 0.20
     Davidson diagonalization with overlap
     ethr =  4.15E-07,  avg # of iterations =  1.8

     negative rho (up, down):  6.535E-02 0.000E+00

     total cpu time spent up to now is     1279.3 secs

     total energy              =   -9109.87179125 Ry
     estimated scf accuracy    <       0.00032187 Ry

     iteration #  5     ecut=    60.00 Ry     beta= 0.20
     Davidson diagonalization with overlap
     ethr =  1.46E-07,  avg # of iterations =  2.0

     negative rho (up, down):  6.528E-02 0.000E+00

     total cpu time spent up to now is     1316.4 secs

     total energy              =   -9109.87181117 Ry
     estimated scf accuracy    <       0.00003381 Ry

     iteration #  6     ecut=    60.00 Ry     beta= 0.20
     Davidson diagonalization with overlap
     ethr =  1.54E-08,  avg # of iterations =  3.8

     negative rho (up, down):  6.527E-02 0.000E+00

     total cpu time spent up to now is     1354.0 secs

     total energy              =   -9109.87181993 Ry
     estimated scf accuracy    <       0.00004176 Ry

     iteration #  7     ecut=    60.00 Ry     beta= 0.20
     Davidson diagonalization with overlap
     ethr =  1.54E-08,  avg # of iterations =  1.0

     negative rho (up, down):  6.523E-02 0.000E+00

     total cpu time spent up to now is     1390.9 secs

     total energy              =   -9109.87182585 Ry
     estimated scf accuracy    <       0.00001625 Ry

     iteration #  8     ecut=    60.00 Ry     beta= 0.20
     Davidson diagonalization with overlap
     ethr =  7.39E-09,  avg # of iterations =  2.0

     negative rho (up, down):  6.521E-02 0.000E+00

     total cpu time spent up to now is     1427.8 secs

     total energy              =   -9109.87182806 Ry
     estimated scf accuracy    <       0.00001081 Ry

     iteration #  9     ecut=    60.00 Ry     beta= 0.20
     Davidson diagonalization with overlap
     ethr =  4.91E-09,  avg # of iterations =  1.3

     negative rho (up, down):  6.518E-02 0.000E+00

     total cpu time spent up to now is     1464.9 secs

     total energy              =   -9109.87182992 Ry
     estimated scf accuracy    <       0.00000615 Ry

     iteration # 10     ecut=    60.00 Ry     beta= 0.20
     Davidson diagonalization with overlap
     ethr =  2.79E-09,  avg # of iterations =  2.0

     negative rho (up, down):  6.517E-02 0.000E+00

     total cpu time spent up to now is     1501.9 secs

     total energy              =   -9109.87183072 Ry
     estimated scf accuracy    <       0.00000047 Ry

     iteration # 11     ecut=    60.00 Ry     beta= 0.20
     Davidson diagonalization with overlap
     ethr =  2.14E-10,  avg # of iterations =  4.4

     negative rho (up, down):  6.517E-02 0.000E+00

     total cpu time spent up to now is     1539.5 secs

     total energy              =   -9109.87183083 Ry
     estimated scf accuracy    <       0.00000031 Ry

     iteration # 12     ecut=    60.00 Ry     beta= 0.20
     Davidson diagonalization with overlap
     ethr =  1.41E-10,  avg # of iterations =  1.8

     negative rho (up, down):  6.517E-02 0.000E+00

     total cpu time spent up to now is     1577.2 secs

     total energy              =   -9109.87183096 Ry
     estimated scf accuracy    <       0.00000025 Ry

     iteration # 13     ecut=    60.00 Ry     beta= 0.20
     Davidson diagonalization with overlap
     ethr =  1.14E-10,  avg # of iterations =  1.8

     negative rho (up, down):  6.517E-02 0.000E+00

     total cpu time spent up to now is     1614.6 secs

     total energy              =   -9109.87183098 Ry
     estimated scf accuracy    <       0.00000010 Ry

     iteration # 14     ecut=    60.00 Ry     beta= 0.20
     Davidson diagonalization with overlap
     ethr =  4.47E-11,  avg # of iterations =  2.0

     negative rho (up, down):  6.517E-02 0.000E+00

     total cpu time spent up to now is     1651.7 secs

     total energy              =   -9109.87183101 Ry
     estimated scf accuracy    <       0.00000013 Ry

     iteration # 15     ecut=    60.00 Ry     beta= 0.20
     Davidson diagonalization with overlap
     ethr =  4.47E-11,  avg # of iterations =  1.2

     negative rho (up, down):  6.517E-02 0.000E+00

     total cpu time spent up to now is     1688.8 secs

     End of self-consistent calculation

          k = 0.0000 0.0000 0.0000 ( 88895 PWs)   bands (ev):

  -103.4697-103.4697-103.4609-103.4608-103.0724-103.0724 -69.0200 -69.0200
   -69.0197 -69.0197 -64.0499 -64.0498 -64.0478 -64.0474 -63.8799 -63.8797
   -63.8290 -63.8288 -63.7443 -63.7442 -63.7134 -63.7132 -63.5750 -63.5748
   -63.5239 -63.5238 -63.3636 -63.3635 -35.4882 -35.4878 -35.4873 -35.4868
   -35.4455 -35.4454 -35.4454 -35.4453 -35.4132 -35.4097 -35.4093 -35.4057
   -12.9336 -12.6406 -12.5512 -12.1159 -12.0445 -11.8954 -11.8314 -11.7974
   -11.6791 -11.5054  -6.1840  -5.9323  -5.7326  -5.6989  -5.4487  -5.3997
    -5.3651  -4.7732  -4.6371  -4.2502  -4.1490  -3.9021  -3.8751  -3.8097
    -3.7616  -3.7612  -3.6969  -3.6349  -3.4823  -3.4801  -3.1276  -3.0890
    -2.9774  -2.8989  -2.7672  -2.7515  -2.7100  -2.6654  -2.4872  -2.4033
    -2.3357  -2.2770  -2.2592  -2.1416  -2.1415  -2.0513  -1.9585  -1.9575
    -1.8094  -1.7800  -1.7123  -1.6500  -1.6159  -1.5462  -1.5301  -1.4285
    -1.3906  -1.3621  -1.3302  -1.2585  -1.1431  -1.0123  -0.9634  -0.8904
    -0.8693  -0.6462  -0.5722  -0.5659  -0.4472  -0.3243  -0.1145  -0.0988
     0.3734   0.6730   0.6849   0.8962   1.0413   1.1308   1.2632   1.3578
     1.3836   1.5515   1.8028   1.9149   1.9430   2.4015   2.7453   2.7971
     2.8471   2.8883   3.0860   3.1578

          k = 0.0000 0.4635 0.0000 ( 88891 PWs)   bands (ev):

  -103.4695-103.4695-103.4611-103.4610-103.0724-103.0724 -69.0199 -69.0199
   -69.0196 -69.0196 -64.0499 -64.0498 -64.0478 -64.0476 -63.8789 -63.8788
   -63.8307 -63.8307 -63.7430 -63.7429 -63.7138 -63.7137 -63.5750 -63.5748
   -63.5239 -63.5238 -63.3635 -63.3635 -35.4878 -35.4873 -35.4869 -35.4864
   -35.4498 -35.4497 -35.4496 -35.4495 -35.4127 -35.4093 -35.4088 -35.4054
   -12.8517 -12.5607 -12.4809 -12.0756 -11.9871 -11.8612 -11.7848 -11.7566
   -11.6372 -11.4800  -6.1138  -5.8657  -5.6540  -5.6122  -5.3957  -5.3361
    -5.2786  -4.7085  -4.5878  -4.2262  -4.1435  -4.0317  -3.9483  -3.9317
    -3.8966  -3.8136  -3.7262  -3.6756  -3.4496  -3.3974  -3.2602  -3.1626
    -2.9986  -2.9001  -2.8975  -2.8407  -2.8332  -2.8194  -2.7181  -2.4140
    -2.3992  -2.3439  -2.3187  -2.2730  -2.1683  -2.1247  -2.0088  -1.9185
    -1.9021  -1.8958  -1.8560  -1.8202  -1.7253  -1.6198  -1.5680  -1.5414
    -1.4341  -1.4317  -1.2856  -1.1575  -1.1321  -1.0859  -1.0807  -0.8500
    -0.7802  -0.7526  -0.7116  -0.6034  -0.3980  -0.3795  -0.0372   0.1240
     0.3694   0.5299   0.7870   0.8839   1.0087   1.0120   1.2231   1.3872
     1.3880   1.5433   1.6183   1.7627   2.0720   2.2633   2.3738   2.4109
     2.5404   2.6112   3.0916   3.3114

          k = 0.0000 0.9270 0.0000 ( 88990 PWs)   bands (ev):

  -103.4689-103.4689-103.4617-103.4616-103.0724-103.0724 -69.0197 -69.0197
   -69.0194 -69.0194 -64.0499 -64.0498 -64.0480 -64.0479 -63.8765 -63.8764
   -63.8358 -63.8357 -63.7395 -63.7394 -63.7151 -63.7150 -63.5751 -63.5748
   -63.5239 -63.5239 -63.3638 -63.3637 -35.4868 -35.4864 -35.4859 -35.4855
   -35.4608 -35.4607 -35.4605 -35.4603 -35.4111 -35.4083 -35.4075 -35.4046
   -12.6177 -12.3342 -12.2852 -11.9623 -11.8382 -11.7763 -11.6488 -11.6406
   -11.5286 -11.4135  -5.9513  -5.7085  -5.4607  -5.4214  -5.2654  -5.1686
    -5.0645  -4.6991  -4.5802  -4.3471  -4.2627  -4.2146  -4.1269  -4.1185
    -4.0497  -3.9636  -3.9193  -3.7438  -3.6683  -3.6276  -3.3481  -3.3275
    -3.3273  -3.1738  -3.1121  -3.0271  -2.9927  -2.8511  -2.7418  -2.7382
    -2.6032  -2.5577  -2.4942  -2.4230  -2.3168  -2.2155  -2.1429  -2.1369
    -2.0898  -1.9640  -1.8850  -1.8160  -1.7872  -1.6810  -1.6295  -1.6160
    -1.5898  -1.4905  -1.4825  -1.2003  -1.1571  -1.0827  -1.0577  -1.0535
    -0.9466  -0.9292  -0.8029  -0.6391  -0.5676  -0.5087   0.2504   0.3796
     0.4164   0.7426   0.7549   0.8006   0.9592   0.9807   1.0315   1.1609
     1.4922   1.5020   1.5261   1.8055   1.8864   2.1367   2.1510   2.2331
     2.4032   2.4484   3.5269   3.6257

          k = 0.0000 1.3904 0.0000 ( 89056 PWs)   bands (ev):

  -103.4680-103.4680-103.4626-103.4625-103.0724-103.0724 -69.0194 -69.0194
   -69.0192 -69.0191 -64.0498 -64.0497 -64.0482 -64.0482 -63.8725 -63.8724
   -63.8429 -63.8429 -63.7348 -63.7347 -63.7171 -63.7170 -63.5751 -63.5747
   -63.5239 -63.5239 -63.3641 -63.3641 -35.4871 -35.4868 -35.4863 -35.4860
   -35.4730 -35.4728 -35.4724 -35.4722 -35.4092 -35.4071 -35.4058 -35.4037
   -12.2717 -12.0175 -12.0055 -11.7937 -11.6779 -11.6585 -11.4869 -11.4500
   -11.4087 -11.3328  -5.8913  -5.6781  -5.5042  -5.4875  -5.1568  -5.1113
    -5.0369  -4.8786  -4.7839  -4.5802  -4.4684  -4.4437  -4.2542  -4.1594
    -4.1397  -4.0368  -3.9654  -3.8971  -3.7823  -3.6560  -3.5438  -3.5341
    -3.4052  -3.2970  -3.1881  -3.1639  -3.1443  -2.9899  -2.8525  -2.7577
    -2.7312  -2.7269  -2.5696  -2.5688  -2.3934  -2.2577  -2.2297  -2.2177
    -2.2085  -2.0807  -2.0126  -1.9971  -1.8563  -1.7668  -1.7199  -1.6453
    -1.5967  -1.5609  -1.5502  -1.4474  -1.2419  -1.2198  -1.2182  -1.1842
    -1.0198  -1.0167  -0.9161  -0.7698  -0.7327  -0.6996   0.2373   0.3595
     0.5305   0.7615   0.8770   0.9241   1.0597   1.0952   1.1329   1.1802
     1.4395   1.5800   1.5812   1.9035   1.9589   2.1172   2.3042   2.3802
     2.5431   2.6180   3.2513   3.3110

          k = 0.0000 1.8539 0.0000 ( 89176 PWs)   bands (ev):

  -103.4669-103.4669-103.4637-103.4636-103.0724-103.0724 -69.0191 -69.0191
   -69.0190 -69.0190 -64.0498 -64.0497 -64.0487 -64.0485 -63.8673 -63.8672
   -63.8504 -63.8504 -63.7300 -63.7299 -63.7200 -63.7199 -63.5751 -63.5749
   -63.5239 -63.5239 -63.3644 -63.3644 -35.4920 -35.4918 -35.4914 -35.4911
   -35.4781 -35.4779 -35.4772 -35.4770 -35.4074 -35.4063 -35.4042 -35.4031
   -11.8971 -11.7892 -11.6674 -11.6016 -11.5849 -11.5110 -11.3768 -11.3698
   -11.2804 -11.2713  -6.0842  -6.0247  -5.9755  -5.9728  -5.3044  -5.2194
    -5.0759  -5.0153  -4.8266  -4.7215  -4.4261  -4.3381  -4.3195  -4.0450
    -4.0163  -3.9017  -3.7843  -3.7555  -3.7152  -3.6884  -3.5007  -3.4963
    -3.4620  -3.4336  -3.3504  -3.3412  -3.1014  -3.0900  -2.9784  -2.9542
    -2.6990  -2.6964  -2.6086  -2.6048  -2.3743  -2.3324  -2.2839  -2.2602
    -2.1968  -2.1838  -2.1186  -2.0370  -2.0130  -1.9012  -1.8769  -1.7583
    -1.5915  -1.5834  -1.5344  -1.5197  -1.3966  -1.3549  -1.3110  -1.2859
    -1.1482  -1.0816  -1.0525  -0.9078  -0.8865  -0.8322   0.1106   0.1978
     0.6723   0.8897   0.8956   0.9743   0.9913   1.3840   1.4342   1.4401
     1.5189   1.5534   1.6903   1.8278   1.9014   2.2315   2.3806   2.5409
     2.7795   2.9256   2.9655   2.9943

          k = 0.0000-2.3174 0.0000 ( 89158 PWs)   bands (ev):

  -103.4662-103.4662-103.4644-103.4643-103.0724-103.0724 -69.0191 -69.0190
   -69.0189 -69.0189 -64.0496 -64.0496 -64.0488 -64.0486 -63.8634 -63.8634
   -63.8550 -63.8549 -63.7270 -63.7270 -63.7222 -63.7222 -63.5750 -63.5749
   -63.5239 -63.5239 -63.3645 -63.3644 -35.4953 -35.4951 -35.4947 -35.4945
   -35.4786 -35.4784 -35.4776 -35.4774 -35.4064 -35.4062 -35.4033 -35.4031
   -11.7024 -11.6985 -11.5194 -11.4864 -11.4705 -11.4664 -11.4169 -11.3854
   -11.2418 -11.2373  -6.2256  -6.2033  -6.2020  -6.1804  -5.4465  -5.3942
    -5.0439  -5.0368  -4.8640  -4.8632  -4.2526  -4.2346  -4.0762  -4.0473
    -3.9593  -3.9134  -3.6985  -3.6365  -3.5927  -3.5923  -3.5569  -3.5436
    -3.5426  -3.5394  -3.2957  -3.2604  -3.2181  -3.1698  -3.0622  -3.0384
    -2.6543  -2.6248  -2.6234  -2.5692  -2.3711  -2.3655  -2.3013  -2.2642
    -2.2617  -2.2500  -2.0595  -2.0540  -1.9997  -1.9808  -1.9336  -1.8871
    -1.6114  -1.6101  -1.4683  -1.4621  -1.4384  -1.4309  -1.3562  -1.3555
    -1.2451  -1.2265  -1.0750  -1.0569  -0.8817  -0.8252   0.0973   0.1350
     0.7552   0.7856   0.9511   0.9584   1.0982   1.2238   1.4281   1.4332
     1.7620   1.7655   1.7674   1.7683   1.9905   2.0726   2.3666   2.4107
     2.7570   2.8061   3.0376   3.1688

          k =-0.5000 0.0000 0.0000 ( 88946 PWs)   bands (ev):

  -103.4697-103.4697-103.4609-103.4608-103.0724-103.0724 -69.0200 -69.0200
   -69.0197 -69.0197 -64.0501 -64.0500 -64.0477 -64.0477 -63.8798 -63.8798
   -63.8290 -63.8289 -63.7443 -63.7443 -63.7133 -63.7133 -63.5751 -63.5750
   -63.5238 -63.5238 -63.3636 -63.3635 -35.4881 -35.4880 -35.4870 -35.4870
   -35.4455 -35.4455 -35.4453 -35.4453 -35.4121 -35.4121 -35.4068 -35.4068
   -12.8464 -12.8464 -12.2512 -12.2512 -12.0590 -12.0590 -11.7581 -11.7581
   -11.5824 -11.5824  -6.0930  -6.0930  -5.7339  -5.7339  -5.3990  -5.3990
    -5.0298  -5.0298  -4.5847  -4.5846  -3.9095  -3.9095  -3.8305  -3.8304
    -3.7207  -3.7207  -3.5608  -3.5608  -3.4823  -3.4822  -3.2707  -3.2706
    -3.0206  -3.0205  -2.7243  -2.7242  -2.6747  -2.6746  -2.4159  -2.4159
    -2.3570  -2.3569  -2.1849  -2.1849  -2.0652  -2.0652  -1.8863  -1.8863
    -1.8366  -1.8366  -1.6535  -1.6534  -1.6255  -1.6255  -1.4564  -1.4563
    -1.4091  -1.4091  -1.2825  -1.2825  -1.0780  -1.0779  -0.9133  -0.9133
    -0.7543  -0.7543  -0.4945  -0.4945  -0.4623  -0.4623  -0.1076  -0.1076
     0.5247   0.5247   0.8224   0.8224   1.1381   1.1382   1.1951   1.1951
     1.4116   1.4117   1.8679   1.8679   2.1773   2.1773   2.7894   2.7894
     2.9250   2.9251   3.0295   3.0295

          k =-0.5000 0.4635 0.0000 ( 88940 PWs)   bands (ev):

  -103.4695-103.4695-103.4611-103.4610-103.0724-103.0724 -69.0199 -69.0199
   -69.0196 -69.0196 -64.0499 -64.0499 -64.0478 -64.0477 -63.8789 -63.8789
   -63.8307 -63.8307 -63.7430 -63.7430 -63.7138 -63.7137 -63.5750 -63.5750
   -63.5239 -63.5239 -63.3636 -63.3635 -35.4876 -35.4876 -35.4866 -35.4866
   -35.4498 -35.4498 -35.4496 -35.4495 -35.4116 -35.4116 -35.4065 -35.4065
   -12.7659 -12.7658 -12.1837 -12.1837 -12.0210 -12.0209 -11.7167 -11.7167
   -11.5505 -11.5505  -6.0215  -6.0214  -5.6522  -5.6522  -5.3323  -5.3322
    -4.9751  -4.9751  -4.5411  -4.5410  -4.0259  -4.0259  -3.9252  -3.9251
    -3.7222  -3.7221  -3.5860  -3.5860  -3.5386  -3.5386  -3.2193  -3.2193
    -3.1288  -3.1288  -2.8303  -2.8302  -2.7966  -2.7965  -2.6053  -2.6053
    -2.3367  -2.3367  -2.2918  -2.2918  -2.1138  -2.1138  -2.0020  -2.0020
    -1.8729  -1.8729  -1.8355  -1.8355  -1.6737  -1.6737  -1.5532  -1.5531
    -1.4086  -1.4086  -1.2554  -1.2553  -1.0660  -1.0659  -0.9346  -0.9346
    -0.8225  -0.8225  -0.6893  -0.6893  -0.3311  -0.3311   0.0340   0.0340
     0.4658   0.4659   0.8899   0.8899   1.0649   1.0649   1.1532   1.1532
     1.4057   1.4057   1.7648   1.7648   2.0819   2.0819   2.4481   2.4481
     2.5476   2.5476   3.2307   3.2307

          k =-0.5000 0.9270 0.0000 ( 89000 PWs)   bands (ev):

  -103.4689-103.4689-103.4617-103.4616-103.0724-103.0724 -69.0197 -69.0197
   -69.0194 -69.0194 -64.0499 -64.0498 -64.0479 -64.0479 -63.8765 -63.8764
   -63.8358 -63.8358 -63.7395 -63.7394 -63.7150 -63.7150 -63.5750 -63.5749
   -63.5239 -63.5239 -63.3638 -63.3638 -35.4867 -35.4866 -35.4857 -35.4857
   -35.4608 -35.4608 -35.4604 -35.4604 -35.4102 -35.4102 -35.4056 -35.4055
   -12.5368 -12.5368 -11.9982 -11.9982 -11.9153 -11.9152 -11.6094 -11.6094
   -11.4630 -11.4630  -5.8520  -5.8520  -5.4437  -5.4437  -5.1832  -5.1831
    -4.9283  -4.9283  -4.4809  -4.4809  -4.2488  -4.2488  -4.1778  -4.1778
    -3.8416  -3.8416  -3.7410  -3.7410  -3.6684  -3.6684  -3.4134  -3.4134
    -3.2995  -3.2994  -3.0663  -3.0663  -2.8988  -2.8988  -2.7928  -2.7928
    -2.5916  -2.5916  -2.4817  -2.4817  -2.2183  -2.2183  -2.1519  -2.1518
    -2.0306  -2.0306  -1.8593  -1.8593  -1.7061  -1.7061  -1.6249  -1.6249
    -1.4837  -1.4837  -1.3817  -1.3817  -1.1814  -1.1814  -1.0573  -1.0573
    -0.9534  -0.9534  -0.6482  -0.6482  -0.5038  -0.5038   0.2845   0.2845
     0.5641   0.5641   0.8019   0.8019   1.0589   1.0590   1.1467   1.1467
     1.3124   1.3125   1.6512   1.6513   2.0176   2.0176   2.2346   2.2347
     2.3863   2.3864   3.5983   3.5988

          k =-0.5000 1.3904 0.0000 ( 89046 PWs)   bands (ev):

  -103.4680-103.4680-103.4626-103.4625-103.0724-103.0724 -69.0194 -69.0194
   -69.0192 -69.0191 -64.0498 -64.0497 -64.0482 -64.0482 -63.8723 -63.8723
   -63.8429 -63.8429 -63.7347 -63.7347 -63.7171 -63.7171 -63.5750 -63.5749
   -63.5239 -63.5238 -63.3641 -63.3641 -35.4870 -35.4869 -35.4861 -35.4861
   -35.4729 -35.4729 -35.4723 -35.4723 -35.4084 -35.4084 -35.4044 -35.4044
   -12.2017 -12.2016 -11.7853 -11.7852 -11.7325 -11.7325 -11.4826 -11.4826
   -11.3498 -11.3498  -5.8061  -5.8061  -5.3963  -5.3963  -5.2410  -5.2410
    -5.0290  -5.0290  -4.5875  -4.5875  -4.4830  -4.4830  -4.1544  -4.1544
    -4.0452  -4.0451  -3.9633  -3.9633  -3.7149  -3.7149  -3.5909  -3.5909
    -3.2866  -3.2866  -3.1601  -3.1601  -3.0715  -3.0715  -2.9088  -2.9088
    -2.6837  -2.6837  -2.6062  -2.6062  -2.3317  -2.3317  -2.2059  -2.2059
    -2.1620  -2.1619  -2.0177  -2.0177  -1.7472  -1.7472  -1.6908  -1.6907
    -1.5575  -1.5575  -1.5220  -1.5220  -1.2678  -1.2678  -1.1855  -1.1854
    -1.0128  -1.0128  -0.8474  -0.8473  -0.7080  -0.7079   0.2733   0.2733
     0.7492   0.7493   0.9328   0.9328   1.0707   1.0707   1.1413   1.1413
     1.4463   1.4463   1.6495   1.6495   2.1707   2.1707   2.3353   2.3353
     2.4696   2.4696   3.3320   3.3323

          k =-0.5000 1.8539 0.0000 ( 89136 PWs)   bands (ev):

  -103.4669-103.4669-103.4637-103.4636-103.0724-103.0724 -69.0191 -69.0191
   -69.0190 -69.0190 -64.0497 -64.0496 -64.0485 -64.0485 -63.8673 -63.8672
   -63.8504 -63.8504 -63.7299 -63.7299 -63.7199 -63.7199 -63.5750 -63.5749
   -63.5239 -63.5238 -63.3644 -63.3644 -35.4919 -35.4919 -35.4913 -35.4912
   -35.4780 -35.4780 -35.4771 -35.4771 -35.4069 -35.4069 -35.4036 -35.4035
   -11.8541 -11.8540 -11.6390 -11.6389 -11.5193 -11.5193 -11.3934 -11.3934
   -11.2691 -11.2691  -6.1243  -6.1243  -5.8646  -5.8646  -5.3222  -5.3222
    -5.0501  -5.0501  -4.7700  -4.7700  -4.3891  -4.3890  -4.1905  -4.1905
    -3.9425  -3.9425  -3.8088  -3.8088  -3.6461  -3.6461  -3.5258  -3.5258
    -3.4261  -3.4260  -3.2830  -3.2830  -3.0870  -3.0869  -2.9513  -2.9513
    -2.7807  -2.7807  -2.5692  -2.5692  -2.4395  -2.4395  -2.2640  -2.2639
    -2.1897  -2.1897  -2.1038  -2.1038  -1.8813  -1.8813  -1.7973  -1.7973
    -1.6126  -1.6125  -1.5290  -1.5290  -1.4004  -1.4004  -1.2448  -1.2448
    -1.1643  -1.1643  -0.9977  -0.9976  -0.8375  -0.8375   0.1556   0.1556
     0.7848   0.7848   1.0137   1.0137   1.1837   1.1837   1.4040   1.4040
     1.5171   1.5171   1.7312   1.7313   2.0158   2.0158   2.6001   2.6001
     2.6547   2.6547   3.0198   3.0198

          k =-0.5000-2.3174 0.0000 ( 89104 PWs)   bands (ev):

  -103.4662-103.4662-103.4644-103.4643-103.0724-103.0724 -69.0191 -69.0190
   -69.0189 -69.0189 -64.0495 -64.0495 -64.0485 -64.0485 -63.8635 -63.8635
   -63.8550 -63.8550 -63.7269 -63.7269 -63.7221 -63.7221 -63.5749 -63.5748
   -63.5238 -63.5238 -63.3645 -63.3645 -35.4952 -35.4952 -35.4946 -35.4946
   -35.4785 -35.4785 -35.4775 -35.4775 -35.4063 -35.4063 -35.4032 -35.4032
   -11.7002 -11.7001 -11.5065 -11.5065 -11.4677 -11.4677 -11.3994 -11.3994
   -11.2388 -11.2388  -6.3180  -6.3180  -6.0554  -6.0553  -5.4501  -5.4500
    -5.0229  -5.0228  -4.9033  -4.9033  -4.1929  -4.1928  -4.1559  -4.1559
    -3.8646  -3.8646  -3.6897  -3.6896  -3.6284  -3.6283  -3.5664  -3.5664
    -3.4744  -3.4743  -3.3834  -3.3834  -3.0365  -3.0365  -2.9166  -2.9165
    -2.8336  -2.8336  -2.5554  -2.5554  -2.4389  -2.4389  -2.2984  -2.2983
    -2.2647  -2.2647  -2.0179  -2.0179  -1.9598  -1.9598  -1.8890  -1.8890
    -1.6402  -1.6401  -1.4714  -1.4713  -1.4548  -1.4548  -1.2985  -1.2985
    -1.2825  -1.2825  -1.0652  -1.0652  -0.8516  -0.8516   0.1225   0.1225
     0.8026   0.8026   0.9956   0.9957   1.1048   1.1048   1.4505   1.4505
     1.7663   1.7664   1.8338   1.8339   1.8726   1.8726   2.4960   2.4960
     2.6280   2.6280   3.2343   3.2347

     the Fermi energy is    -0.2191 ev

!    total energy              =   -9109.87183101 Ry
     total all-electron energy =     -9109.871831 Ry
     estimated scf accuracy    <          8.7E-09 Ry
     smearing contrib. (-TS)   =      -0.00000000 Ry
     internal energy E=F+TS    =   -9109.87183101 Ry

     The total energy is F=E-TS. E is the sum of the following terms:
     one-electron contribution =  -15881.62351483 Ry
     hartree contribution      =    7798.04429446 Ry
     xc contribution           =    -364.47591403 Ry
     ewald contribution        =    5605.84185455 Ry
     one-center paw contrib.   =   -6267.65855115 Ry

     convergence has been achieved in  15 iterations

     negative rho (up, down):  6.517E-02 0.000E+00

     Forces acting on atoms (cartesian axes, Ry/au):

     atom    1 type  1   force =    -0.00475886   -0.01461828    0.00690579
     atom    2 type  1   force =    -0.00478300    0.01462001   -0.00690528
     atom    3 type  1   force =     0.00477880   -0.01462190    0.00691541
     atom    4 type  1   force =     0.00473926    0.01462233   -0.00691567
     atom    5 type  2   force =     0.00366374   -0.01515368    0.00592655
     atom    6 type  2   force =     0.00366149    0.01513558   -0.00596753
     atom    7 type  2   force =    -0.00363652   -0.01513018    0.00596479
     atom    8 type  2   force =    -0.00360342    0.01514013   -0.00591537
     atom    9 type  2   force =    -0.00000919   -0.00776521    0.00671977
     atom   10 type  2   force =     0.00004759    0.00776294   -0.00672328
     atom   11 type  3   force =    -0.00265116    0.01095534    0.01447979
     atom   12 type  3   force =    -0.00264561   -0.01095288   -0.01448268
     atom   13 type  3   force =     0.00198337   -0.00785484    0.01137803
     atom   14 type  3   force =     0.00197529    0.00785525   -0.01137033
     atom   15 type  3   force =     0.00267463    0.01095470    0.01448185
     atom   16 type  3   force =     0.00267467   -0.01095033   -0.01448715
     atom   17 type  3   force =    -0.00201412   -0.00785561    0.01137951
     atom   18 type  3   force =    -0.00202169    0.00785446   -0.01137883
     atom   19 type  3   force =    -0.00003764   -0.00784172    0.00999422
     atom   20 type  3   force =    -0.00003763    0.00784389   -0.00999960

     Total force =     0.070069     Total SCF correction =     0.000686


     Computing stress (Cartesian axis) and pressure


     negative rho (up, down):  6.517E-02 0.000E+00
          total   stress  (Ry/bohr**3)                   (kbar)     P=      -10.61
  -0.00003084  -0.00000000  -0.00000000           -4.54       -0.00       -0.00
  -0.00000000  -0.00010458   0.00000911           -0.00      -15.38        1.34
  -0.00000000   0.00000911  -0.00008101           -0.00        1.34      -11.92

     Energy error            =      6.8E-03 Ry
     Gradient error          =      1.5E-02 Ry/Bohr

     number of scf cycles    =   2
     number of bfgs steps    =   1

     energy             old  =   -9109.8650275688 Ry
     energy             new  =   -9109.8718310074 Ry

     CASE: energy            _new < energy            _old


     WARNING: bfgs curvature condition failed, Theta= 0.993
     new trust radius        =       0.0241610129 bohr
     new conv_thr            =       0.0000000015 Ry


ATOMIC_POSITIONS (angstrom)
Ta              15.3849638054        0.8950135062       12.4534580499
Ta               6.5646411130        2.7646641722       12.5823764500
Ta               2.2720488753        0.8950075064       12.4533065695
Ta              11.0923287818        2.7646780319       12.5825183011
Ni              12.8690080960        0.8936594181       11.7693692806
Ni               4.0486629536        2.7660399500       13.2664534736
Ni               4.7879184525        0.8936742069       11.7691243059
Ni              13.6082523127        2.7660479593       13.2666984024
Ni               8.8283537629        0.9049448202       12.3766139608
Ni               0.0081172797        2.7547489890       12.6592082844
Te              14.2098054411        2.7599519871       10.5540694362
Te               5.3894936400        0.8997405758       14.4817581265
Te              10.5983522879        0.9044854450       10.5350530151
Te               1.7780631784        2.7552039365       14.5007808881
Te               3.4469573531        2.7599512115       10.5538458810
Te              12.2672552048        0.8997415599       14.4819785081
Te               7.0586544123        0.9044841981       10.5348929569
Te              15.8789313038        2.7552043650       14.5009493204
Te               0.0082482591        0.9049268183       10.8499870285
Te               8.8285058499        2.7547637966       14.1858087609



     Writing config-only to output data dir /ddn/data/physics/eamoujaes/2D-Ta2Ni3Te5/ELASTIC/C22/OUT/ta2ni3te5.save/ :
     XML data file
     NEW-OLD atomic charge density approx. for the potential

     negative rho (up, down):  6.568E-02 0.000E+00

     total cpu time spent up to now is     1784.8 secs

     Self-consistent Calculation

     iteration #  1     ecut=    60.00 Ry     beta= 0.20
     Davidson diagonalization with overlap
     c_bands:  1 eigenvalues not converged
     ethr =  1.00E-06,  avg # of iterations =  8.2

     negative rho (up, down):  6.557E-02 0.000E+00

     total cpu time spent up to now is     1825.2 secs

     total energy              =   -9109.87632486 Ry
     estimated scf accuracy    <       0.00343362 Ry

     iteration #  2     ecut=    60.00 Ry     beta= 0.20
     Davidson diagonalization with overlap
     ethr =  1.56E-06,  avg # of iterations =  3.3

     negative rho (up, down):  6.556E-02 0.000E+00

     total cpu time spent up to now is     1862.6 secs

     total energy              =   -9109.87664927 Ry
     estimated scf accuracy    <       0.01543927 Ry

     iteration #  3     ecut=    60.00 Ry     beta= 0.20
     Davidson diagonalization with overlap
     ethr =  1.56E-06,  avg # of iterations =  2.0

     negative rho (up, down):  6.553E-02 0.000E+00

     total cpu time spent up to now is     1900.0 secs

     total energy              =   -9109.87743473 Ry
     estimated scf accuracy    <       0.00102570 Ry

     iteration #  4     ecut=    60.00 Ry     beta= 0.20
     Davidson diagonalization with overlap
     ethr =  4.66E-07,  avg # of iterations =  1.6

     negative rho (up, down):  6.545E-02 0.000E+00

     total cpu time spent up to now is     1936.9 secs

     total energy              =   -9109.87745081 Ry
     estimated scf accuracy    <       0.00035363 Ry

     iteration #  5     ecut=    60.00 Ry     beta= 0.20
     Davidson diagonalization with overlap
     ethr =  1.61E-07,  avg # of iterations =  2.0

     negative rho (up, down):  6.537E-02 0.000E+00

     total cpu time spent up to now is     1974.2 secs

     total energy              =   -9109.87747022 Ry
     estimated scf accuracy    <       0.00003899 Ry

     iteration #  6     ecut=    60.00 Ry     beta= 0.20
     Davidson diagonalization with overlap
     ethr =  1.77E-08,  avg # of iterations =  3.8

     negative rho (up, down):  6.535E-02 0.000E+00

     total cpu time spent up to now is     2012.3 secs

     total energy              =   -9109.87748237 Ry
     estimated scf accuracy    <       0.00001511 Ry

     iteration #  7     ecut=    60.00 Ry     beta= 0.20
     Davidson diagonalization with overlap
     ethr =  6.87E-09,  avg # of iterations =  2.0

     negative rho (up, down):  6.532E-02 0.000E+00

     total cpu time spent up to now is     2049.4 secs

     total energy              =   -9109.87748579 Ry
     estimated scf accuracy    <       0.00003717 Ry

     iteration #  8     ecut=    60.00 Ry     beta= 0.20
     Davidson diagonalization with overlap
     ethr =  6.87E-09,  avg # of iterations =  1.8

     negative rho (up, down):  6.529E-02 0.000E+00

     total cpu time spent up to now is     2086.7 secs

     total energy              =   -9109.87748885 Ry
     estimated scf accuracy    <       0.00001141 Ry

     iteration #  9     ecut=    60.00 Ry     beta= 0.20
     Davidson diagonalization with overlap
     ethr =  5.18E-09,  avg # of iterations =  1.0

     negative rho (up, down):  6.526E-02 0.000E+00

     total cpu time spent up to now is     2123.7 secs

     total energy              =   -9109.87749065 Ry
     estimated scf accuracy    <       0.00000621 Ry

     iteration # 10     ecut=    60.00 Ry     beta= 0.20
     Davidson diagonalization with overlap
     ethr =  2.82E-09,  avg # of iterations =  2.0

     negative rho (up, down):  6.526E-02 0.000E+00

     total cpu time spent up to now is     2161.0 secs

     total energy              =   -9109.87749143 Ry
     estimated scf accuracy    <       0.00000053 Ry

     iteration # 11     ecut=    60.00 Ry     beta= 0.20
     Davidson diagonalization with overlap
     ethr =  2.40E-10,  avg # of iterations =  4.1

     negative rho (up, down):  6.526E-02 0.000E+00

     total cpu time spent up to now is     2198.7 secs

     total energy              =   -9109.87749153 Ry
     estimated scf accuracy    <       0.00000062 Ry

     iteration # 12     ecut=    60.00 Ry     beta= 0.20
     Davidson diagonalization with overlap
     ethr =  2.40E-10,  avg # of iterations =  1.2

     negative rho (up, down):  6.525E-02 0.000E+00

     total cpu time spent up to now is     2235.8 secs

     total energy              =   -9109.87749172 Ry
     estimated scf accuracy    <       0.00000019 Ry

     iteration # 13     ecut=    60.00 Ry     beta= 0.20
     Davidson diagonalization with overlap
     ethr =  8.73E-11,  avg # of iterations =  2.7

     negative rho (up, down):  6.525E-02 0.000E+00

     total cpu time spent up to now is     2273.5 secs

     total energy              =   -9109.87749174 Ry
     estimated scf accuracy    <       0.00000010 Ry

     iteration # 14     ecut=    60.00 Ry     beta= 0.20
     Davidson diagonalization with overlap
     ethr =  4.68E-11,  avg # of iterations =  1.8

     negative rho (up, down):  6.525E-02 0.000E+00

     total cpu time spent up to now is     2310.7 secs

     total energy              =   -9109.87749177 Ry
     estimated scf accuracy    <       0.00000012 Ry

     iteration # 15     ecut=    60.00 Ry     beta= 0.20
     Davidson diagonalization with overlap
     ethr =  4.68E-11,  avg # of iterations =  1.0

     negative rho (up, down):  6.525E-02 0.000E+00

     total cpu time spent up to now is     2347.7 secs

     total energy              =   -9109.87749177 Ry
     estimated scf accuracy    <          9.0E-09 Ry

     iteration # 16     ecut=    60.00 Ry     beta= 0.20
     Davidson diagonalization with overlap
     ethr =  4.11E-12,  avg # of iterations =  5.3

     negative rho (up, down):  6.525E-02 0.000E+00

     total cpu time spent up to now is     2385.5 secs

     total energy              =   -9109.87749177 Ry
     estimated scf accuracy    <          6.0E-09 Ry

     iteration # 17     ecut=    60.00 Ry     beta= 0.20
     Davidson diagonalization with overlap
     ethr =  2.73E-12,  avg # of iterations =  1.9

     negative rho (up, down):  6.525E-02 0.000E+00

     total cpu time spent up to now is     2423.1 secs

     total energy              =   -9109.87749177 Ry
     estimated scf accuracy    <          5.0E-09 Ry

     iteration # 18     ecut=    60.00 Ry     beta= 0.20
     Davidson diagonalization with overlap
     ethr =  2.26E-12,  avg # of iterations =  1.0

     negative rho (up, down):  6.525E-02 0.000E+00

     total cpu time spent up to now is     2460.0 secs

     total energy              =   -9109.87749177 Ry
     estimated scf accuracy    <          1.8E-09 Ry

     iteration # 19     ecut=    60.00 Ry     beta= 0.20
     Davidson diagonalization with overlap
     ethr =  8.27E-13,  avg # of iterations =  2.0

     negative rho (up, down):  6.525E-02 0.000E+00

     total cpu time spent up to now is     2497.5 secs

     End of self-consistent calculation

          k = 0.0000 0.0000 0.0000 ( 88895 PWs)   bands (ev):

  -103.4827-103.4827-103.4737-103.4736-103.0743-103.0742 -69.0145 -69.0145
   -69.0142 -69.0142 -64.0640 -64.0639 -64.0620 -64.0616 -63.8953 -63.8952
   -63.8432 -63.8430 -63.7551 -63.7550 -63.7239 -63.7237 -63.5737 -63.5735
   -63.5243 -63.5243 -63.3705 -63.3704 -35.4844 -35.4839 -35.4835 -35.4830
   -35.4432 -35.4432 -35.4431 -35.4430 -35.4106 -35.4069 -35.4067 -35.4030
   -12.9575 -12.6694 -12.5669 -12.1241 -12.0627 -11.9005 -11.8472 -11.8121
   -11.6910 -11.5180  -6.1933  -5.9446  -5.7470  -5.7191  -5.4627  -5.4051
    -5.3834  -4.7962  -4.6563  -4.2627  -4.1743  -3.9025  -3.8883  -3.8141
    -3.8133  -3.8030  -3.7187  -3.6443  -3.5181  -3.5112  -3.1472  -3.1133
    -2.9921  -2.9143  -2.7786  -2.7779  -2.7152  -2.6850  -2.4988  -2.4051
    -2.3366  -2.2994  -2.2694  -2.1548  -2.1514  -2.0512  -1.9655  -1.9580
    -1.8094  -1.7676  -1.7093  -1.6749  -1.6569  -1.5734  -1.5284  -1.4375
    -1.4096  -1.3674  -1.3425  -1.2568  -1.1349  -1.0024  -0.9856  -0.9083
    -0.8741  -0.6449  -0.5736  -0.5729  -0.4490  -0.3285  -0.1135  -0.0886
     0.3541   0.6849   0.6850   0.9096   1.0615   1.1348   1.2638   1.3760
     1.3773   1.5524   1.8078   1.9192   1.9640   2.4096   2.7650   2.8317
     2.8713   2.9290   3.0850   3.1339

          k = 0.0000 0.4635 0.0000 ( 88891 PWs)   bands (ev):

  -103.4825-103.4825-103.4739-103.4738-103.0743-103.0742 -69.0144 -69.0144
   -69.0142 -69.0141 -64.0640 -64.0639 -64.0619 -64.0617 -63.8943 -63.8942
   -63.8450 -63.8449 -63.7537 -63.7537 -63.7243 -63.7242 -63.5737 -63.5735
   -63.5244 -63.5243 -63.3705 -63.3704 -35.4839 -35.4834 -35.4830 -35.4825
   -35.4476 -35.4475 -35.4474 -35.4473 -35.4100 -35.4065 -35.4062 -35.4027
   -12.8750 -12.5891 -12.4964 -12.0842 -12.0048 -11.8672 -11.8012 -11.7708
   -11.6491 -11.4931  -6.1238  -5.8784  -5.6689  -5.6331  -5.4093  -5.3413
    -5.2965  -4.7313  -4.6086  -4.2404  -4.1680  -4.0455  -3.9647  -3.9615
    -3.9274  -3.8496  -3.7428  -3.6880  -3.4745  -3.4194  -3.2815  -3.1814
    -3.0128  -2.9171  -2.9122  -2.8671  -2.8456  -2.8322  -2.7308  -2.4309
    -2.4096  -2.3482  -2.3249  -2.2866  -2.1682  -2.1291  -2.0357  -1.9268
    -1.8994  -1.8940  -1.8728  -1.8263  -1.7482  -1.6302  -1.5788  -1.5518
    -1.4445  -1.4405  -1.2797  -1.1594  -1.1337  -1.1013  -1.0739  -0.8501
    -0.7862  -0.7611  -0.7101  -0.6151  -0.3965  -0.3849  -0.0407   0.1241
     0.3733   0.5289   0.7947   0.8964   1.0125   1.0315   1.2386   1.3851
     1.3870   1.5524   1.6224   1.7684   2.0897   2.2816   2.3874   2.4376
     2.5498   2.6392   3.1063   3.3225

          k = 0.0000 0.9270 0.0000 ( 88990 PWs)   bands (ev):

  -103.4819-103.4818-103.4745-103.4745-103.0743-103.0742 -69.0142 -69.0142
   -69.0140 -69.0139 -64.0640 -64.0638 -64.0622 -64.0621 -63.8918 -63.8916
   -63.8502 -63.8501 -63.7501 -63.7501 -63.7256 -63.7255 -63.5738 -63.5735
   -63.5244 -63.5244 -63.3708 -63.3706 -35.4826 -35.4823 -35.4817 -35.4813
   -35.4590 -35.4588 -35.4588 -35.4585 -35.4084 -35.4055 -35.4048 -35.4019
   -12.6396 -12.3613 -12.2998 -11.9719 -11.8548 -11.7853 -11.6665 -11.6531
   -11.5405 -11.4280  -5.9641  -5.7222  -5.4770  -5.4450  -5.2779  -5.1748
    -5.0825  -4.7309  -4.6025  -4.3698  -4.2881  -4.2377  -4.1464  -4.1427
    -4.0617  -3.9934  -3.9354  -3.7531  -3.6790  -3.6475  -3.3673  -3.3505
    -3.3486  -3.1884  -3.1225  -3.0379  -3.0078  -2.8718  -2.7608  -2.7412
    -2.6133  -2.5650  -2.5111  -2.4317  -2.3286  -2.2291  -2.1544  -2.1506
    -2.0988  -1.9702  -1.9030  -1.8190  -1.7922  -1.6966  -1.6344  -1.6227
    -1.6001  -1.5060  -1.4937  -1.1980  -1.1628  -1.0833  -1.0528  -1.0372
    -0.9493  -0.9428  -0.8077  -0.6439  -0.5684  -0.5116   0.2469   0.3814
     0.4138   0.7464   0.7701   0.8016   0.9783   0.9898   1.0398   1.1654
     1.5000   1.5045   1.5311   1.8129   1.8970   2.1505   2.1697   2.2463
     2.4274   2.4532   3.5426   3.6393

          k = 0.0000 1.3904 0.0000 ( 89056 PWs)   bands (ev):

  -103.4809-103.4809-103.4755-103.4754-103.0743-103.0742 -69.0139 -69.0139
   -69.0137 -69.0137 -64.0638 -64.0638 -64.0624 -64.0624 -63.8874 -63.8873
   -63.8577 -63.8576 -63.7453 -63.7452 -63.7277 -63.7277 -63.5738 -63.5734
   -63.5244 -63.5243 -63.3711 -63.3710 -35.4823 -35.4820 -35.4815 -35.4812
   -35.4719 -35.4717 -35.4713 -35.4711 -35.4064 -35.4043 -35.4030 -35.4009
   -12.2912 -12.0311 -12.0304 -11.8046 -11.6904 -11.6754 -11.4976 -11.4682
   -11.4209 -11.3491  -5.9102  -5.6958  -5.5324  -5.5114  -5.1693  -5.1404
    -5.0560  -4.8996  -4.8011  -4.6001  -4.4850  -4.4638  -4.2625  -4.1736
    -4.1611  -4.0573  -3.9797  -3.9084  -3.7897  -3.6655  -3.5668  -3.5496
    -3.4256  -3.3002  -3.2022  -3.1670  -3.1598  -2.9934  -2.8751  -2.7723
    -2.7418  -2.7403  -2.5902  -2.5834  -2.4085  -2.2692  -2.2409  -2.2331
    -2.2210  -2.0872  -2.0306  -2.0126  -1.8689  -1.7747  -1.7315  -1.6560
    -1.6080  -1.5683  -1.5594  -1.4504  -1.2445  -1.2212  -1.2179  -1.1875
    -1.0259  -1.0142  -0.9186  -0.7769  -0.7298  -0.7023   0.2387   0.3577
     0.5321   0.7655   0.8945   0.9276   1.0661   1.1041   1.1459   1.1761
     1.4462   1.5853   1.5875   1.9140   1.9588   2.1252   2.3250   2.3924
     2.5630   2.6324   3.2797   3.3233

          k = 0.0000 1.8539 0.0000 ( 89176 PWs)   bands (ev):

  -103.4797-103.4797-103.4767-103.4766-103.0742-103.0742 -69.0137 -69.0136
   -69.0135 -69.0135 -64.0638 -64.0637 -64.0629 -64.0628 -63.8817 -63.8816
   -63.8658 -63.8658 -63.7403 -63.7402 -63.7308 -63.7307 -63.5738 -63.5736
   -63.5244 -63.5243 -63.3714 -63.3713 -35.4878 -35.4876 -35.4873 -35.4870
   -35.4764 -35.4763 -35.4755 -35.4753 -35.4045 -35.4034 -35.4014 -35.4003
   -11.9129 -11.8028 -11.6897 -11.6172 -11.5962 -11.5298 -11.3864 -11.3826
   -11.2982 -11.2889  -6.1089  -6.0502  -6.0023  -6.0014  -5.3191  -5.2402
    -5.0968  -5.0413  -4.8439  -4.7435  -4.4346  -4.3495  -4.3371  -4.0528
    -4.0211  -3.9154  -3.7970  -3.7588  -3.7221  -3.6979  -3.5164  -3.4989
    -3.4704  -3.4527  -3.3521  -3.3509  -3.1196  -3.1118  -2.9942  -2.9688
    -2.7167  -2.7089  -2.6348  -2.6195  -2.3882  -2.3393  -2.3070  -2.2829
    -2.2103  -2.1970  -2.1261  -2.0560  -2.0274  -1.9118  -1.8927  -1.7692
    -1.5975  -1.5903  -1.5417  -1.5288  -1.4005  -1.3598  -1.3181  -1.2895
    -1.1507  -1.0873  -1.0627  -0.9057  -0.8800  -0.8373   0.1129   0.1953
     0.6757   0.9027   0.9064   0.9775   1.0053   1.3793   1.4358   1.4453
     1.5184   1.5620   1.6897   1.8406   1.8954   2.2392   2.3826   2.5592
     2.8049   2.9573   2.9814   3.0085

          k = 0.0000-2.3174 0.0000 ( 89158 PWs)   bands (ev):

  -103.4788-103.4787-103.4776-103.4776-103.0742-103.0742 -69.0136 -69.0135
   -69.0135 -69.0135 -64.0636 -64.0635 -64.0631 -64.0629 -63.8764 -63.8764
   -63.8718 -63.8717 -63.7368 -63.7368 -63.7335 -63.7335 -63.5737 -63.5736
   -63.5244 -63.5244 -63.3714 -63.3713 -35.4916 -35.4914 -35.4910 -35.4908
   -35.4764 -35.4763 -35.4755 -35.4754 -35.4035 -35.4034 -35.4005 -35.4004
   -11.7149 -11.7121 -11.5319 -11.5039 -11.4966 -11.4896 -11.4197 -11.3967
   -11.2591 -11.2557  -6.2489  -6.2323  -6.2292  -6.2107  -5.4581  -5.4179
    -5.0630  -5.0540  -4.8880  -4.8866  -4.2569  -4.2442  -4.0889  -4.0664
    -3.9630  -3.9287  -3.6909  -3.6424  -3.6004  -3.5939  -3.5610  -3.5532
    -3.5470  -3.5454  -3.3102  -3.2738  -3.2378  -3.1917  -3.0819  -3.0681
    -2.6636  -2.6446  -2.6359  -2.5976  -2.3785  -2.3685  -2.3314  -2.3054
    -2.2756  -2.2640  -2.0678  -2.0608  -2.0084  -2.0038  -1.9340  -1.9068
    -1.6198  -1.6172  -1.4735  -1.4696  -1.4412  -1.4392  -1.3648  -1.3631
    -1.2515  -1.2411  -1.0719  -1.0598  -0.8710  -0.8303   0.1034   0.1280
     0.7616   0.7854   0.9691   0.9745   1.1219   1.2096   1.4225   1.4271
     1.7573   1.7579   1.7758   1.7767   2.0044   2.0692   2.3797   2.4156
     2.7886   2.8247   3.0708   3.1637

          k =-0.5000 0.0000 0.0000 ( 88946 PWs)   bands (ev):

  -103.4827-103.4827-103.4737-103.4736-103.0743-103.0742 -69.0145 -69.0145
   -69.0142 -69.0142 -64.0642 -64.0641 -64.0618 -64.0618 -63.8953 -63.8952
   -63.8431 -63.8431 -63.7551 -63.7550 -63.7238 -63.7237 -63.5737 -63.5737
[...]
     1.5070   1.5324   1.5410   1.8462   1.9218   2.1803   2.2151   2.2978
     2.4793   2.4991   3.5799   3.6867

          k = 0.0000 1.3904 0.0000 ( 89056 PWs)   bands (ev):

  -103.5140-103.5140-103.5081-103.5081-103.0917-103.0917 -68.9939 -68.9939
   -68.9937 -68.9937 -64.0982 -64.0981 -64.0967 -64.0966 -63.9298 -63.9297
   -63.8972 -63.8971 -63.7730 -63.7729 -63.7548 -63.7548 -63.5801 -63.5797
   -63.5362 -63.5362 -63.4074 -63.4074 -35.4675 -35.4673 -35.4666 -35.4663
   -35.4634 -35.4632 -35.4629 -35.4627 -35.3974 -35.3951 -35.3941 -35.3918
   -12.3609 -12.1151 -12.0798 -11.8465 -11.7350 -11.7335 -11.5542 -11.5109
   -11.4769 -11.3903  -5.9673  -5.7507  -5.6227  -5.5945  -5.2377  -5.2207
    -5.1225  -4.9673  -4.8652  -4.6659  -4.5346  -4.5210  -4.2986  -4.2333
    -4.2242  -4.1047  -4.0287  -3.9391  -3.8263  -3.7064  -3.6522  -3.5984
    -3.4756  -3.3259  -3.2412  -3.2272  -3.1792  -3.0122  -2.9359  -2.8279
    -2.7819  -2.7776  -2.6570  -2.6297  -2.4526  -2.3184  -2.2790  -2.2782
    -2.2598  -2.1198  -2.0946  -2.0315  -1.9222  -1.7927  -1.7630  -1.6824
    -1.6340  -1.6045  -1.5872  -1.4539  -1.2617  -1.2215  -1.2108  -1.1938
    -1.0484  -1.0140  -0.9208  -0.8080  -0.7120  -0.7110   0.2450   0.3575
     0.5360   0.7645   0.9477   0.9651   1.0813   1.1357   1.1669   1.1920
     1.4715   1.6034   1.6035   1.9623   1.9643   2.1422   2.3809   2.4504
     2.6233   2.6691   3.3415   3.3812

          k = 0.0000 1.8539 0.0000 ( 89176 PWs)   bands (ev):

  -103.5126-103.5126-103.5095-103.5095-103.0917-103.0917 -68.9936 -68.9936
   -68.9935 -68.9935 -64.0981 -64.0980 -64.0973 -64.0971 -63.9232 -63.9231
   -63.9063 -63.9063 -63.7676 -63.7675 -63.7582 -63.7581 -63.5801 -63.5799
   -63.5362 -63.5362 -63.4077 -63.4077 -35.4756 -35.4755 -35.4750 -35.4749
   -35.4656 -35.4654 -35.4646 -35.4644 -35.3954 -35.3942 -35.3923 -35.3911
   -11.9708 -11.8446 -11.7697 -11.6723 -11.6485 -11.5943 -11.4406 -11.4388
   -11.3404 -11.3305  -6.1862  -6.1318  -6.0955  -6.0810  -5.3853  -5.3155
    -5.1657  -5.1271  -4.8969  -4.8095  -4.4636  -4.3887  -4.3833  -4.0924
    -4.0310  -3.9672  -3.8451  -3.7765  -3.7385  -3.7306  -3.5829  -3.5074
    -3.5072  -3.5022  -3.3746  -3.3701  -3.1871  -3.1864  -3.0344  -3.0257
    -2.7733  -2.7525  -2.7042  -2.6605  -2.4430  -2.3835  -2.3809  -2.3445
    -2.2432  -2.2393  -2.1528  -2.1004  -2.0756  -1.9349  -1.9316  -1.7962
    -1.6157  -1.6077  -1.5777  -1.5730  -1.4132  -1.3822  -1.3403  -1.3008
    -1.1465  -1.1367  -1.1017  -0.8912  -0.8679  -0.8413   0.1227   0.2005
     0.6900   0.9052   0.9730   0.9966   1.0558   1.3704   1.4276   1.4522
     1.5224   1.5945   1.6907   1.8824   1.8911   2.2792   2.3899   2.6168
     2.8810   3.0282   3.0482   3.0607

          k = 0.0000-2.3174 0.0000 ( 89158 PWs)   bands (ev):

  -103.5111-103.5111-103.5110-103.5110-103.0917-103.0917 -68.9935 -68.9935
   -68.9934 -68.9934 -64.0979 -64.0977 -64.0975 -64.0974 -63.9155 -63.9155
   -63.9147 -63.9146 -63.7628 -63.7627 -63.7622 -63.7622 -63.5800 -63.5800
   -63.5362 -63.5362 -63.4077 -63.4077 -35.4800 -35.4800 -35.4794 -35.4794
   -35.4650 -35.4649 -35.4639 -35.4639 -35.3943 -35.3943 -35.3913 -35.3913
   -11.7516 -11.7515 -11.5893 -11.5863 -11.5725 -11.5701 -11.4553 -11.4547
   -11.2975 -11.2971  -6.3207  -6.3168  -6.3166  -6.3075  -5.5108  -5.5081
    -5.1191  -5.1154  -4.9627  -4.9603  -4.2741  -4.2728  -4.1292  -4.1209
    -3.9785  -3.9759  -3.6688  -3.6658  -3.6398  -3.6382  -3.5738  -3.5727
    -3.5678  -3.5646  -3.3547  -3.3469  -3.2526  -3.2510  -3.1704  -3.1699
    -2.7001  -2.6985  -2.6764  -2.6753  -2.4193  -2.4147  -2.4121  -2.4096
    -2.3098  -2.3063  -2.0834  -2.0831  -2.0454  -2.0420  -1.9560  -1.9491
    -1.6404  -1.6389  -1.5105  -1.5093  -1.4616  -1.4560  -1.4001  -1.3995
    -1.2937  -1.2903  -1.0575  -1.0561  -0.8432  -0.8407   0.1220   0.1237
     0.7829   0.7926   1.0331   1.0354   1.1693   1.1744   1.4064   1.4125
     1.7328   1.7337   1.8032   1.8106   2.0625   2.0679   2.4298   2.4301
     2.8842   2.8927   3.1726   3.1775

          k =-0.5000 0.0000 0.0000 ( 88946 PWs)   bands (ev):

  -103.5161-103.5161-103.5060-103.5060-103.0918-103.0917 -68.9945 -68.9945
   -68.9942 -68.9942 -64.0985 -64.0985 -64.0959 -64.0959 -63.9388 -63.9388
   -63.8812 -63.8812 -63.7833 -63.7833 -63.7507 -63.7507 -63.5801 -63.5801
   -63.5362 -63.5362 -63.4068 -63.4068 -35.4713 -35.4712 -35.4702 -35.4701
   -35.4323 -35.4323 -35.4321 -35.4321 -35.4007 -35.4007 -35.3952 -35.3952
   -12.9520 -12.9520 -12.3389 -12.3389 -12.0988 -12.0987 -11.8152 -11.8152
   -11.6397 -11.6397  -6.1339  -6.1338  -5.8017  -5.8017  -5.4538  -5.4537
    -5.1159  -5.1159  -4.6673  -4.6673  -3.9896  -3.9896  -3.9462  -3.9462
    -3.8166  -3.8166  -3.6381  -3.6381  -3.6155  -3.6155  -3.3289  -3.3289
    -3.1200  -3.1200  -2.7713  -2.7713  -2.7470  -2.7470  -2.5017  -2.5016
    -2.3814  -2.3814  -2.2567  -2.2567  -2.0999  -2.0999  -1.8651  -1.8651
    -1.8323  -1.8322  -1.7754  -1.7753  -1.6286  -1.6286  -1.5635  -1.5635
    -1.4318  -1.4317  -1.2709  -1.2709  -1.0396  -1.0396  -0.9921  -0.9921
    -0.7527  -0.7527  -0.4944  -0.4943  -0.4672  -0.4672  -0.0987  -0.0987
     0.5131   0.5131   0.8560   0.8560   1.1312   1.1312   1.3176   1.3176
     1.4160   1.4161   1.9021   1.9022   2.2160   2.2160   2.8970   2.8970
     3.0020   3.0020   3.1567   3.1567

          k =-0.5000 0.4635 0.0000 ( 88940 PWs)   bands (ev):

  -103.5159-103.5159-103.5063-103.5063-103.0918-103.0917 -68.9944 -68.9944
   -68.9941 -68.9941 -64.0984 -64.0984 -64.0960 -64.0960 -63.9377 -63.9377
   -63.8832 -63.8832 -63.7820 -63.7820 -63.7512 -63.7512 -63.5800 -63.5800
   -63.5362 -63.5362 -63.4068 -63.4068 -35.4707 -35.4707 -35.4696 -35.4696
   -35.4369 -35.4369 -35.4366 -35.4366 -35.4001 -35.4001 -35.3948 -35.3948
   -12.8696 -12.8696 -12.2708 -12.2708 -12.0624 -12.0624 -11.7732 -11.7732
   -11.6096 -11.6096  -6.0645  -6.0645  -5.7217  -5.7217  -5.3851  -5.3851
    -5.0644  -5.0644  -4.6266  -4.6265  -4.1097  -4.1097  -4.0637  -4.0637
    -3.8135  -3.8135  -3.6736  -3.6735  -3.6190  -3.6190  -3.2937  -3.2937
    -3.2160  -3.2160  -2.8894  -2.8894  -2.8668  -2.8668  -2.6747  -2.6747
    -2.3847  -2.3847  -2.3455  -2.3455  -2.1772  -2.1772  -2.0134  -2.0134
    -1.8963  -1.8963  -1.8864  -1.8864  -1.6912  -1.6912  -1.6111  -1.6111
    -1.4433  -1.4433  -1.2595  -1.2595  -1.0527  -1.0527  -0.9343  -0.9342
    -0.8507  -0.8507  -0.6981  -0.6981  -0.3392  -0.3392   0.0276   0.0276
     0.4833   0.4833   0.9160   0.9160   1.0834   1.0834   1.2316   1.2317
     1.4354   1.4355   1.7906   1.7906   2.1388   2.1389   2.5052   2.5052
     2.6285   2.6285   3.2927   3.2927

          k =-0.5000 0.9270 0.0000 ( 89000 PWs)   bands (ev):

  -103.5152-103.5152-103.5070-103.5070-103.0917-103.0917 -68.9942 -68.9942
   -68.9939 -68.9939 -64.0983 -64.0983 -64.0963 -64.0963 -63.9348 -63.9348
   -63.8889 -63.8889 -63.7782 -63.7782 -63.7526 -63.7526 -63.5800 -63.5800
   -63.5363 -63.5362 -63.4071 -63.4071 -35.4691 -35.4691 -35.4681 -35.4681
   -35.4488 -35.4488 -35.4485 -35.4484 -35.3986 -35.3985 -35.3938 -35.3938
   -12.6351 -12.6351 -12.0837 -12.0836 -11.9616 -11.9616 -11.6651 -11.6651
   -11.5260 -11.5260  -5.9038  -5.9038  -5.5206  -5.5206  -5.2334  -5.2333
    -5.0388  -5.0388  -4.5860  -4.5860  -4.3241  -4.3241  -4.2918  -4.2918
    -3.9336  -3.9336  -3.8150  -3.8149  -3.7307  -3.7307  -3.4885  -3.4885
    -3.3782  -3.3782  -3.1299  -3.1299  -2.9541  -2.9540  -2.8546  -2.8546
    -2.6356  -2.6356  -2.5339  -2.5339  -2.2770  -2.2770  -2.1975  -2.1975
    -2.0817  -2.0817  -1.8948  -1.8948  -1.7336  -1.7336  -1.6611  -1.6611
    -1.5251  -1.5251  -1.4021  -1.4021  -1.1934  -1.1934  -1.0339  -1.0339
    -0.9605  -0.9605  -0.6443  -0.6442  -0.5161  -0.5161   0.2683   0.2683
     0.5821   0.5821   0.8272   0.8272   1.1020   1.1021   1.2085   1.2086
     1.3310   1.3310   1.6812   1.6812   2.0739   2.0739   2.3087   2.3087
     2.4197   2.4197   3.6601   3.6601

          k =-0.5000 1.3904 0.0000 ( 89046 PWs)   bands (ev):

  -103.5140-103.5140-103.5081-103.5081-103.0917-103.0917 -68.9939 -68.9939
   -68.9937 -68.9937 -64.0982 -64.0982 -64.0967 -64.0967 -63.9297 -63.9297
   -63.8972 -63.8972 -63.7729 -63.7729 -63.7548 -63.7548 -63.5800 -63.5800
   -63.5362 -63.5362 -63.4074 -63.4074 -35.4674 -35.4674 -35.4665 -35.4664
   -35.4633 -35.4633 -35.4628 -35.4628 -35.3966 -35.3966 -35.3926 -35.3926
   -12.2903 -12.2903 -11.8554 -11.8554 -11.8014 -11.8014 -11.5399 -11.5399
   -11.4146 -11.4146  -5.8851  -5.8851  -5.5091  -5.5091  -5.3299  -5.3299
    -5.1139  -5.1139  -4.6733  -4.6733  -4.5573  -4.5573  -4.2057  -4.2057
    -4.1009  -4.1008  -4.0501  -4.0501  -3.7849  -3.7848  -3.6452  -3.6452
    -3.3308  -3.3308  -3.2402  -3.2402  -3.0799  -3.0798  -2.9871  -2.9871
    -2.7407  -2.7407  -2.6706  -2.6706  -2.3976  -2.3976  -2.2580  -2.2580
    -2.2214  -2.2214  -2.0685  -2.0685  -1.7975  -1.7975  -1.7261  -1.7261
    -1.5965  -1.5965  -1.5490  -1.5490  -1.2823  -1.2823  -1.1817  -1.1817
    -1.0106  -1.0106  -0.8742  -0.8742  -0.7076  -0.7075   0.2744   0.2744
     0.7835   0.7835   0.9554   0.9554   1.0920   1.0920   1.1545   1.1545
     1.4882   1.4883   1.6896   1.6896   2.2254   2.2255   2.3735   2.3735
     2.5330   2.5330   3.4245   3.4245

          k =-0.5000 1.8539 0.0000 ( 89136 PWs)   bands (ev):

  -103.5126-103.5126-103.5095-103.5095-103.0917-103.0917 -68.9936 -68.9936
   -68.9935 -68.9935 -64.0980 -64.0980 -64.0972 -64.0972 -63.9231 -63.9231
   -63.9063 -63.9063 -63.7675 -63.7675 -63.7581 -63.7581 -63.5800 -63.5800
   -63.5362 -63.5362 -63.4077 -63.4077 -35.4755 -35.4755 -35.4750 -35.4750
   -35.4655 -35.4655 -35.4645 -35.4645 -35.3949 -35.3949 -35.3916 -35.3916
   -11.9250 -11.9250 -11.7140 -11.7140 -11.6013 -11.6013 -11.4545 -11.4545
   -11.3304 -11.3304  -6.2312  -6.2312  -5.9782  -5.9782  -5.4101  -5.4101
    -5.1486  -5.1485  -4.8455  -4.8455  -4.4415  -4.4415  -4.2360  -4.2359
    -3.9803  -3.9803  -3.8595  -3.8595  -3.6835  -3.6835  -3.6017  -3.6017
    -3.4391  -3.4391  -3.3202  -3.3202  -3.1425  -3.1425  -3.0556  -3.0556
    -2.8384  -2.8384  -2.6402  -2.6402  -2.5165  -2.5165  -2.3352  -2.3352
    -2.2528  -2.2528  -2.1492  -2.1492  -1.9414  -1.9414  -1.8342  -1.8342
    -1.6372  -1.6372  -1.5726  -1.5725  -1.4248  -1.4248  -1.2587  -1.2587
    -1.1927  -1.1926  -1.0262  -1.0261  -0.8246  -0.8246   0.1628   0.1628
     0.8255   0.8255   1.0501   1.0501   1.1992   1.1992   1.3983   1.3983
     1.5336   1.5336   1.7613   1.7613   2.0431   2.0431   2.6792   2.6792
     2.6998   2.6998   3.1060   3.1060

          k =-0.5000-2.3174 0.0000 ( 89104 PWs)   bands (ev):

  -103.5111-103.5111-103.5110-103.5110-103.0917-103.0917 -68.9935 -68.9935
   -68.9934 -68.9934 -64.0977 -64.0977 -64.0974 -64.0973 -63.9156 -63.9156
   -63.9147 -63.9147 -63.7627 -63.7627 -63.7621 -63.7621 -63.5799 -63.5799
   -63.5361 -63.5361 -63.4078 -63.4078 -35.4800 -35.4800 -35.4794 -35.4794
   -35.4650 -35.4649 -35.4639 -35.4639 -35.3943 -35.3943 -35.3913 -35.3913
   -11.7513 -11.7513 -11.5851 -11.5851 -11.5743 -11.5743 -11.4560 -11.4560
   -11.2963 -11.2963  -6.4288  -6.4288  -6.1711  -6.1711  -5.5379  -5.5379
    -5.1058  -5.1057  -4.9918  -4.9918  -4.2224  -4.2224  -4.2106  -4.2106
    -3.9090  -3.9089  -3.7186  -3.7186  -3.6505  -3.6504  -3.5977  -3.5977
    -3.5158  -3.5158  -3.4527  -3.4527  -3.0749  -3.0749  -3.0084  -3.0084
    -2.9277  -2.9277  -2.6330  -2.6330  -2.5104  -2.5104  -2.3937  -2.3937
    -2.3255  -2.3255  -2.0364  -2.0364  -2.0180  -2.0180  -1.9344  -1.9344
    -1.6717  -1.6717  -1.5162  -1.5162  -1.4780  -1.4780  -1.3489  -1.3489
    -1.3173  -1.3172  -1.0691  -1.0691  -0.8386  -0.8386   0.1290   0.1290
     0.8298   0.8299   1.0531   1.0531   1.1192   1.1192   1.4420   1.4420
     1.7328   1.7328   1.8659   1.8659   1.9059   1.9059   2.6043   2.6043
     2.6680   2.6680   3.3266   3.3266

     the Fermi energy is    -0.2205 ev

!    total energy              =   -9109.88462849 Ry
     total all-electron energy =     -9109.884628 Ry
     estimated scf accuracy    <          8.8E-11 Ry
     smearing contrib. (-TS)   =      -0.00000000 Ry
     internal energy E=F+TS    =   -9109.88462849 Ry

     The total energy is F=E-TS. E is the sum of the following terms:
     one-electron contribution =  -15971.89724357 Ry
     hartree contribution      =    7843.01715452 Ry
     xc contribution           =    -364.72555884 Ry
     ewald contribution        =    5651.39439125 Ry
     one-center paw contrib.   =   -6267.67337185 Ry

     convergence has been achieved in  13 iterations

     negative rho (up, down):  6.569E-02 0.000E+00

     Forces acting on atoms (cartesian axes, Ry/au):

     atom    1 type  1   force =    -0.00033080    0.00017860    0.00066732
     atom    2 type  1   force =    -0.00033822   -0.00017909   -0.00066991
     atom    3 type  1   force =     0.00032979    0.00017844    0.00066734
     atom    4 type  1   force =     0.00033013   -0.00017865   -0.00066989
     atom    5 type  2   force =    -0.00047467   -0.00061748   -0.00025471
     atom    6 type  2   force =    -0.00048565    0.00061511    0.00025137
     atom    7 type  2   force =     0.00047512   -0.00061730   -0.00024467
     atom    8 type  2   force =     0.00049183    0.00061373    0.00024728
     atom    9 type  2   force =    -0.00000046    0.00038689   -0.00099812
     atom   10 type  2   force =     0.00000036   -0.00038521    0.00099720
     atom   11 type  3   force =     0.00007345    0.00066917    0.00006948
     atom   12 type  3   force =     0.00007695   -0.00066885   -0.00006820
     atom   13 type  3   force =    -0.00022006   -0.00048098   -0.00065223
     atom   14 type  3   force =    -0.00022022    0.00048283    0.00065208
     atom   15 type  3   force =    -0.00007408    0.00066815    0.00007123
     atom   16 type  3   force =    -0.00007545   -0.00066904   -0.00006913
     atom   17 type  3   force =     0.00022472   -0.00048041   -0.00065069
     atom   18 type  3   force =     0.00022133    0.00048225    0.00065190
     atom   19 type  3   force =    -0.00000236    0.00013806   -0.00025622
     atom   20 type  3   force =    -0.00000172   -0.00013621    0.00025858

     Total force =     0.003488     Total SCF correction =     0.000053


     Computing stress (Cartesian axis) and pressure


     negative rho (up, down):  6.569E-02 0.000E+00
          total   stress  (Ry/bohr**3)                   (kbar)     P=       -6.05
  -0.00001560   0.00000000   0.00000000           -2.29        0.00        0.00
   0.00000000  -0.00007158  -0.00000002            0.00      -10.53       -0.00
   0.00000000  -0.00000002  -0.00003629            0.00       -0.00       -5.34

     Energy error            =      1.4E-05 Ry
     Gradient error          =      1.0E-03 Ry/Bohr

     bfgs converged in  10 scf cycles and   9 bfgs steps
     (criteria: energy <  1.0E-04 Ry, force <  1.0E-03 Ry/Bohr)

     End of BFGS Geometry Optimization

     Final energy             =   -9109.8846284897 Ry

     File /ddn/data/physics/eamoujaes/2D-Ta2Ni3Te5/ELASTIC/C22/OUT/ta2ni3te5.bfgs deleted, as requested
Begin final coordinates

ATOMIC_POSITIONS (angstrom)
Ta              15.3798351156        0.8734392484       12.4716456943
Ta               6.5595528277        2.7862588400       12.5641901742
Ta               2.2770778330        0.8734425154       12.4714697599
Ta              11.0973576234        2.7862589752       12.5643680704
Ni              12.8747551491        0.8783446648       11.7838463651
Ni               4.0544635684        2.7813373052       13.2519807387
Ni               4.7823108472        0.8783464835       11.7836061677
Ni              13.6025981900        2.7813375977       13.2522073197
Ni               8.8284026721        0.8784788906       12.3961053012
Ni               0.0081392412        2.7812233095       12.6397103686
Te              14.1998743465        2.7767849255       10.5925056361
Te               5.3795821754        0.8829043543       14.4433177003
Te              10.5967700552        0.8860703050       10.5511597339
Te               1.7764945464        2.7736238806       14.4846777694
Te               3.4569419732        2.7767879364       10.5923546289
Te              12.2772253731        0.8829086802       14.4434665958
Te               7.0601842537        0.8860659100       10.5509716004
Te              15.8804568734        2.7736245093       14.4848663302
Te               0.0081476030        0.8762924871       10.8825741062
Te               8.8283920955        2.7834016352       14.1532269389
End final coordinates



     Writing all to output data dir /ddn/data/physics/eamoujaes/2D-Ta2Ni3Te5/ELASTIC/C22/OUT/ta2ni3te5.save/ :
     XML data file, charge density, pseudopotentials, collected wavefunctions
 
     init_run     :     51.82s CPU     64.00s WALL (       1 calls)
     electrons    :   5159.30s CPU   6676.69s WALL (      10 calls)
     update_pot   :    239.83s CPU    305.91s WALL (       9 calls)
     forces       :     17.74s CPU     22.14s WALL (      10 calls)
     stress       :     31.76s CPU     49.90s WALL (      10 calls)

     Called by init_run:
     wfcinit      :      6.22s CPU      7.74s WALL (       1 calls)
     potinit      :     41.15s CPU     50.57s WALL (       1 calls)
     hinit0       :      2.58s CPU      3.03s WALL (       1 calls)

     Called by electrons:
     c_bands      :    379.31s CPU    558.10s WALL (     182 calls)
     sum_band     :    128.01s CPU    169.76s WALL (     182 calls)
     v_of_rho     :     64.73s CPU     85.72s WALL (     187 calls)
     newd         :     14.33s CPU     23.09s WALL (     187 calls)
                                       23.09s GPU  (     187 calls)
     PAW_pot      :   5018.22s CPU   6404.06s WALL (     196 calls)
     mix_rho      :     19.58s CPU     35.17s WALL (     182 calls)

     Called by c_bands:
     init_us_2    :     37.78s CPU     47.85s WALL (    4728 calls)
     init_us_2:cp :     32.21s CPU     40.41s WALL (     108 calls)
     init_us_2:gp :      5.46s CPU      7.31s WALL (    4620 calls)
     cegterg      :    214.74s CPU    364.98s WALL (    2184 calls)

     Called by *egterg:
     cdiaghg      :     19.25s CPU     31.08s WALL (    7566 calls)
                                       31.04s GPU  (    7566 calls)
     h_psi        :    154.68s CPU    266.29s WALL (    7746 calls)
                                      265.67s GPU  (    7746 calls)
     s_psi        :      3.50s CPU      4.84s WALL (    7746 calls)
     g_psi        :      0.02s CPU      2.40s WALL (    5550 calls)
                                        2.36s GPU  (    5550 calls)

     Called by h_psi:
     h_psi:calbec :      0.25s CPU     10.64s WALL (    7746 calls)
                                       10.59s GPU  (    7746 calls)
     vloc_psi     :    138.74s CPU    240.15s WALL (    7746 calls)
                                      240.11s GPU  (    7746 calls)
     add_vuspsi   :      2.65s CPU     12.87s WALL (    7746 calls)
                                       12.83s GPU  (    7746 calls)

     General routines
     calbec       :     93.24s CPU    158.41s WALL (   10638 calls)
     fft          :     18.20s CPU     19.22s WALL (    2675 calls)
                                        1.07s GPU  (    2488 calls)
     ffts         :      4.81s CPU      4.84s WALL (     369 calls)
                                        0.03s GPU  (     182 calls)
     fftw         :      0.81s CPU    209.78s WALL (  113974 calls)
                                      208.98s GPU  (  113974 calls)
     interpolate  :     26.27s CPU     27.60s WALL (     187 calls)
 
     Parallel routines
 
     PWSCF        :      1h37m CPU      2h 7m WALL

 
   This run was terminated on:  18: 3:53  28Jul2024            

=------------------------------------------------------------------------------=
   JOB DONE.
=------------------------------------------------------------------------------=
