
     Program PWSCF v.7.3 starts on 28Jul2024 at 18: 4: 6 

     This program is part of the open-source Quantum ESPRESSO suite
     for quantum simulation of materials; please cite
         "P. Giannozzi et al., J. Phys.:Condens. Matter 21 395502 (2009);
         "P. Giannozzi et al., J. Phys.:Condens. Matter 29 465901 (2017);
         "P. Giannozzi et al., J. Chem. Phys. 152 154105 (2020);
          URL http://www.quantum-espresso.org", 
     in publications or presentations arising from this work. More details at
     http://www.quantum-espresso.org/quote

     Parallel version (MPI & OpenMP), running on      32 processor cores
     Number of MPI processes:                 1
     Threads/MPI process:                    32

     MPI processes distributed on     1 nodes
     206705 MiB available memory on the printing compute node when the environment starts
 
     Waiting for input...
     Reading input from standard input
Warning: card &CELL ignored
Warning: card CELL_DYNAMICS='BFGS' ignored
Warning: card PRESS=0.0 ignored
Warning: card CELL_DOFREE='2DXY' ignored
Warning: card / ignored

     Current dimensions of program PWSCF are:
     Max number of different atomic species (ntypx) = 10
     Max number of k-points (npk) =  40000
     Max angular momentum in pseudopotentials (lmaxx) =  4
read_pp_mesh; mismatch in mesh size, discarding the one in header
read_pp_mesh; mismatch in mesh size, discarding the one in header
read_pp_mesh; mismatch in mesh size, discarding the one in header
 
     Subspace diagonalization in iterative solution of the eigenvalue problem:
     a serial algorithm will be used

 
     G-vector sticks info
     --------------------
     sticks:   dense  smooth     PW     G-vecs:    dense   smooth      PW
     Sum        9335    4669   1305              2053427   725541  107191
 
     Using Slab Decomposition
 


     bravais-lattice index     =            0
     lattice parameter (alat)  =      33.3357  a.u.
     unit-cell volume          =   11561.6245 (a.u.)^3
     number of atoms/cell      =           20
     number of atomic types    =            3
     number of electrons       =       220.00
     number of Kohn-Sham states=          132
     kinetic-energy cutoff     =      60.0000  Ry
     charge density cutoff     =     480.0000  Ry
     scf convergence threshold =      1.0E-08
     mixing beta               =       0.2000
     number of iterations used =            8  plain     mixing
     energy convergence thresh.=      1.0E-04
     force convergence thresh. =      1.0E-03
     Exchange-correlation= SLA PW PBX PBC
                           (   1   4   3   4   0   0   0)
     nstep                     =         2000


     GPU acceleration is ACTIVE.  1 visible GPUs per MPI rank
     GPU-aware MPI enabled


     celldm(1)=  33.335714  celldm(2)=   0.000000  celldm(3)=   0.000000
     celldm(4)=   0.000000  celldm(5)=   0.000000  celldm(6)=   0.000000

     crystal axes: (cart. coord. in units of alat)
               a(1) = (   1.000000   0.000000   0.000000 )  
               a(2) = (   0.000000   0.219909   0.000000 )  
               a(3) = (   0.000000   0.000000   1.419211 )  

     reciprocal axes: (cart. coord. in units 2 pi/alat)
               b(1) = (  1.000000  0.000000  0.000000 )  
               b(2) = (  0.000000  4.547341  0.000000 )  
               b(3) = (  0.000000  0.000000  0.704617 )  


     PseudoPot. # 1 for Ta read from file:
     /ddn/data/physics/eamoujaes/PSEUDO-CREATED/Ta.upf
     MD5 check sum: d865b2c2c09566b116f2b8decb2c153d
     Pseudo is Projector augmented-wave + core cor, Zval = 13.0
     Generated using ATOMPAW code
     Shape of augmentation charge: SINC**2
     Using radial grid of 2342 points,  6 beta functions with: 
                l(1) =   0
                l(2) =   0
                l(3) =   1
                l(4) =   1
                l(5) =   2
                l(6) =   2
     Q(r) pseudized with 0 coefficients 


     PseudoPot. # 2 for Ni read from file:
     /ddn/data/physics/eamoujaes/PSEUDO-CREATED/Ni.upf
     MD5 check sum: 85a2a5d9d38f4289a1cc30d5adb66a03
     Pseudo is Projector augmented-wave + core cor, Zval = 18.0
     Generated using ATOMPAW code
     Shape of augmentation charge: SINC**2
     Using radial grid of 2342 points,  6 beta functions with: 
                l(1) =   0
                l(2) =   0
                l(3) =   1
                l(4) =   1
                l(5) =   2
                l(6) =   2
     Q(r) pseudized with 0 coefficients 


     PseudoPot. # 3 for Te read from file:
     /ddn/data/physics/eamoujaes/PSEUDO-CREATED/Te.upf
     MD5 check sum: 8d958f193a7511a138982c2e72838810
     Pseudo is Projector augmented-wave + core cor, Zval =  6.0
     Generated using ATOMPAW code
     Shape of augmentation charge: SINC**2
     Using radial grid of 2342 points,  4 beta functions with: 
                l(1) =   0
                l(2) =   0
                l(3) =   1
                l(4) =   1
     Q(r) pseudized with 0 coefficients 


     atomic species   valence    mass     pseudopotential
     Ta               13.00   180.94790     Ta( 1.00)
     Ni               18.00    58.69340     Ni( 1.00)
     Te                6.00   127.60000     Te( 1.00)

     No symmetry found



   Cartesian axes

     site n.     atom                  positions (alat units)
         1        Ta     tau(   1) = (   0.8725286   0.0518649   0.7054131  )
         2        Ta     tau(   2) = (   0.3725263   0.1555948   0.7138118  )
         3        Ta     tau(   3) = (   0.1284065   0.0518649   0.7054032  )
         4        Ta     tau(   4) = (   0.6284092   0.1555948   0.7138208  )
         5        Ni     tau(   5) = (   0.7292542   0.0518649   0.6667436  )
         6        Ni     tau(   6) = (   0.2292509   0.1555948   0.7524812  )
         7        Ni     tau(   7) = (   0.2716741   0.0518649   0.6667284  )
         8        Ni     tau(   8) = (   0.7716766   0.1555948   0.7524957  )
         9        Ni     tau(   9) = (   0.5004590   0.0518649   0.7011256  )
        10        Ni     tau(  10) = (   0.0004579   0.1555948   0.7180981  )
        11        Te     tau(  11) = (   0.8057052   0.1555948   0.5972198  )
        12        Te     tau(  12) = (   0.3057012   0.0518649   0.8220046  )
        13        Te     tau(  13) = (   0.6006311   0.0518649   0.5963172  )
        14        Te     tau(  14) = (   0.1006292   0.1555948   0.8229072  )
        15        Te     tau(  15) = (   0.1952149   0.1555948   0.5972072  )
        16        Te     tau(  16) = (   0.6952178   0.0518649   0.8220171  )
        17        Te     tau(  17) = (   0.4003072   0.0518649   0.5963080  )
        18        Te     tau(  18) = (   0.9003091   0.1555948   0.8229170  )
        19        Te     tau(  19) = (   0.0004704   0.0518649   0.6143601  )
        20        Te     tau(  20) = (   0.5004710   0.1555948   0.8048626  )

     number of k points=    12  Gaussian smearing, width (Ry)=  0.0020
                       cart. coord. in units 2pi/alat
        k(    1) = (   0.0000000   0.0000000   0.0000000), wk =   0.1000000
        k(    2) = (   0.0000000   0.4547341   0.0000000), wk =   0.2000000
        k(    3) = (   0.0000000   0.9094682   0.0000000), wk =   0.2000000
        k(    4) = (   0.0000000   1.3642023   0.0000000), wk =   0.2000000
        k(    5) = (   0.0000000   1.8189364   0.0000000), wk =   0.2000000
        k(    6) = (   0.0000000  -2.2736705   0.0000000), wk =   0.1000000
        k(    7) = (  -0.5000000   0.0000000   0.0000000), wk =   0.1000000
        k(    8) = (  -0.5000000   0.4547341   0.0000000), wk =   0.2000000
        k(    9) = (  -0.5000000   0.9094682   0.0000000), wk =   0.2000000
        k(   10) = (  -0.5000000   1.3642023   0.0000000), wk =   0.2000000
        k(   11) = (  -0.5000000   1.8189364   0.0000000), wk =   0.2000000
        k(   12) = (  -0.5000000  -2.2736705   0.0000000), wk =   0.1000000

     Dense  grid:  2053427 G-vectors     FFT dimensions: ( 240,  54, 360)

     Smooth grid:   725541 G-vectors     FFT dimensions: ( 180,  40, 240)

     Estimated max dynamical RAM per process >      10.50 GB

     Initial potential from superposition of free atoms

     starting charge     219.9927, renormalised to     220.0000

     negative rho (up, down):  5.302E-02 0.000E+00
     Starting wfcs are  260 randomized atomic wfcs
     Checking if some PAW data can be deallocated... 

     total cpu time spent up to now is       66.2 secs

     Self-consistent Calculation

     iteration #  1     ecut=    60.00 Ry     beta= 0.20
     Davidson diagonalization with overlap
     ethr =  1.00E-02,  avg # of iterations =  2.8

     negative rho (up, down):  5.356E-02 0.000E+00

     total cpu time spent up to now is      103.6 secs

     total energy              =   -9107.91898098 Ry
     estimated scf accuracy    <       7.81247746 Ry

     iteration #  2     ecut=    60.00 Ry     beta= 0.20
     Davidson diagonalization with overlap
     ethr =  3.55E-03,  avg # of iterations =  2.7

     negative rho (up, down):  5.461E-02 0.000E+00

     total cpu time spent up to now is      141.5 secs

     total energy              =   -9107.86364200 Ry
     estimated scf accuracy    <      16.48493265 Ry

     iteration #  3     ecut=    60.00 Ry     beta= 0.20
     Davidson diagonalization with overlap
     ethr =  3.55E-03,  avg # of iterations =  1.1

     negative rho (up, down):  5.539E-02 0.000E+00

     total cpu time spent up to now is      178.4 secs

     total energy              =   -9109.83394095 Ry
     estimated scf accuracy    <       2.54104814 Ry

     iteration #  4     ecut=    60.00 Ry     beta= 0.20
     Davidson diagonalization with overlap
     ethr =  1.16E-03,  avg # of iterations =  1.4

     negative rho (up, down):  5.648E-02 0.000E+00

     total cpu time spent up to now is      216.1 secs

     total energy              =   -9109.89784041 Ry
     estimated scf accuracy    <       1.05928133 Ry

     iteration #  5     ecut=    60.00 Ry     beta= 0.20
     Davidson diagonalization with overlap
     ethr =  4.81E-04,  avg # of iterations =  1.0

     negative rho (up, down):  5.908E-02 0.000E+00

     total cpu time spent up to now is      252.9 secs

     total energy              =   -9109.78795878 Ry
     estimated scf accuracy    <       0.61603407 Ry

     iteration #  6     ecut=    60.00 Ry     beta= 0.20
     Davidson diagonalization with overlap
     ethr =  2.80E-04,  avg # of iterations =  2.3

     negative rho (up, down):  6.167E-02 0.000E+00

     total cpu time spent up to now is      290.9 secs

     total energy              =   -9109.81529337 Ry
     estimated scf accuracy    <       0.33108981 Ry

     iteration #  7     ecut=    60.00 Ry     beta= 0.20
     Davidson diagonalization with overlap
     ethr =  1.50E-04,  avg # of iterations =  4.3

     negative rho (up, down):  6.191E-02 0.000E+00

     total cpu time spent up to now is      328.6 secs

     total energy              =   -9109.83325530 Ry
     estimated scf accuracy    <       0.59301225 Ry

     iteration #  8     ecut=    60.00 Ry     beta= 0.20
     Davidson diagonalization with overlap
     ethr =  1.50E-04,  avg # of iterations =  1.0

     negative rho (up, down):  6.212E-02 0.000E+00

     total cpu time spent up to now is      365.6 secs

     total energy              =   -9109.81307994 Ry
     estimated scf accuracy    <       0.16660419 Ry

     iteration #  9     ecut=    60.00 Ry     beta= 0.20
     Davidson diagonalization with overlap
     ethr =  7.57E-05,  avg # of iterations =  2.5

     negative rho (up, down):  6.250E-02 0.000E+00

     total cpu time spent up to now is      402.9 secs

     total energy              =   -9109.83554149 Ry
     estimated scf accuracy    <       0.03221988 Ry

     iteration # 10     ecut=    60.00 Ry     beta= 0.20
     Davidson diagonalization with overlap
     ethr =  1.46E-05,  avg # of iterations =  6.2

     negative rho (up, down):  6.360E-02 0.000E+00

     total cpu time spent up to now is      441.1 secs

     total energy              =   -9109.83415613 Ry
     estimated scf accuracy    <       0.04532639 Ry

     iteration # 11     ecut=    60.00 Ry     beta= 0.20
     Davidson diagonalization with overlap
     ethr =  1.46E-05,  avg # of iterations =  1.1

     negative rho (up, down):  6.442E-02 0.000E+00

     total cpu time spent up to now is      478.2 secs

     total energy              =   -9109.83212853 Ry
     estimated scf accuracy    <       0.02354921 Ry

     iteration # 12     ecut=    60.00 Ry     beta= 0.20
     Davidson diagonalization with overlap
     ethr =  1.07E-05,  avg # of iterations =  1.3

     negative rho (up, down):  6.471E-02 0.000E+00

     total cpu time spent up to now is      515.4 secs

     total energy              =   -9109.83335563 Ry
     estimated scf accuracy    <       0.00209824 Ry

     iteration # 13     ecut=    60.00 Ry     beta= 0.20
     Davidson diagonalization with overlap
     c_bands:  1 eigenvalues not converged
     ethr =  9.54E-07,  avg # of iterations =  8.1

     negative rho (up, down):  6.488E-02 0.000E+00

     total cpu time spent up to now is      553.5 secs

     total energy              =   -9109.83350640 Ry
     estimated scf accuracy    <       0.00053098 Ry

     iteration # 14     ecut=    60.00 Ry     beta= 0.20
     Davidson diagonalization with overlap
     ethr =  2.41E-07,  avg # of iterations =  2.3

     negative rho (up, down):  6.495E-02 0.000E+00

     total cpu time spent up to now is      591.1 secs

     total energy              =   -9109.83356116 Ry
     estimated scf accuracy    <       0.00012380 Ry

     iteration # 15     ecut=    60.00 Ry     beta= 0.20
     Davidson diagonalization with overlap
     ethr =  5.63E-08,  avg # of iterations =  2.7

     negative rho (up, down):  6.505E-02 0.000E+00

     total cpu time spent up to now is      628.9 secs

     total energy              =   -9109.83356909 Ry
     estimated scf accuracy    <       0.00009194 Ry

     iteration # 16     ecut=    60.00 Ry     beta= 0.20
     Davidson diagonalization with overlap
     ethr =  4.18E-08,  avg # of iterations =  1.5

     negative rho (up, down):  6.502E-02 0.000E+00

     total cpu time spent up to now is      666.3 secs

     total energy              =   -9109.83356747 Ry
     estimated scf accuracy    <       0.00006967 Ry

     iteration # 17     ecut=    60.00 Ry     beta= 0.20
     Davidson diagonalization with overlap
     ethr =  3.17E-08,  avg # of iterations =  1.2

     negative rho (up, down):  6.508E-02 0.000E+00

     total cpu time spent up to now is      703.5 secs

     total energy              =   -9109.83357340 Ry
     estimated scf accuracy    <       0.00005413 Ry

     iteration # 18     ecut=    60.00 Ry     beta= 0.20
     Davidson diagonalization with overlap
     ethr =  2.46E-08,  avg # of iterations =  1.0

     negative rho (up, down):  6.504E-02 0.000E+00

     total cpu time spent up to now is      740.7 secs

     total energy              =   -9109.83357650 Ry
     estimated scf accuracy    <       0.00000329 Ry

     iteration # 19     ecut=    60.00 Ry     beta= 0.20
     Davidson diagonalization with overlap
     ethr =  1.49E-09,  avg # of iterations =  3.9

     negative rho (up, down):  6.500E-02 0.000E+00

     total cpu time spent up to now is      778.9 secs

     total energy              =   -9109.83357681 Ry
     estimated scf accuracy    <       0.00000281 Ry

     iteration # 20     ecut=    60.00 Ry     beta= 0.20
     Davidson diagonalization with overlap
     ethr =  1.28E-09,  avg # of iterations =  1.0

     negative rho (up, down):  6.498E-02 0.000E+00

     total cpu time spent up to now is      815.9 secs

     total energy              =   -9109.83357665 Ry
     estimated scf accuracy    <       0.00000332 Ry

     iteration # 21     ecut=    60.00 Ry     beta= 0.20
     Davidson diagonalization with overlap
     ethr =  1.28E-09,  avg # of iterations =  1.0

     negative rho (up, down):  6.496E-02 0.000E+00

     total cpu time spent up to now is      852.9 secs

     total energy              =   -9109.83357680 Ry
     estimated scf accuracy    <       0.00000057 Ry

     iteration # 22     ecut=    60.00 Ry     beta= 0.20
     Davidson diagonalization with overlap
     ethr =  2.59E-10,  avg # of iterations =  2.1

     negative rho (up, down):  6.494E-02 0.000E+00

     total cpu time spent up to now is      890.7 secs

     total energy              =   -9109.83357685 Ry
     estimated scf accuracy    <       0.00000067 Ry

     iteration # 23     ecut=    60.00 Ry     beta= 0.20
     Davidson diagonalization with overlap
     ethr =  2.59E-10,  avg # of iterations =  1.2

     negative rho (up, down):  6.492E-02 0.000E+00

     total cpu time spent up to now is      927.7 secs

     total energy              =   -9109.83357689 Ry
     estimated scf accuracy    <       0.00000017 Ry

     iteration # 24     ecut=    60.00 Ry     beta= 0.20
     Davidson diagonalization with overlap
     ethr =  7.74E-11,  avg # of iterations =  1.3

     negative rho (up, down):  6.491E-02 0.000E+00

     total cpu time spent up to now is      965.0 secs

     total energy              =   -9109.83357691 Ry
     estimated scf accuracy    <       0.00000005 Ry

     iteration # 25     ecut=    60.00 Ry     beta= 0.20
     Davidson diagonalization with overlap
     ethr =  2.13E-11,  avg # of iterations =  2.0

     negative rho (up, down):  6.490E-02 0.000E+00

     total cpu time spent up to now is     1003.0 secs

     total energy              =   -9109.83357692 Ry
     estimated scf accuracy    <       0.00000004 Ry

     iteration # 26     ecut=    60.00 Ry     beta= 0.20
     Davidson diagonalization with overlap
     ethr =  1.67E-11,  avg # of iterations =  1.0

     negative rho (up, down):  6.490E-02 0.000E+00

     total cpu time spent up to now is     1040.0 secs

     total energy              =   -9109.83357692 Ry
     estimated scf accuracy    <       0.00000001 Ry

     iteration # 27     ecut=    60.00 Ry     beta= 0.20
     Davidson diagonalization with overlap
     ethr =  6.79E-12,  avg # of iterations =  2.0

     negative rho (up, down):  6.489E-02 0.000E+00

     total cpu time spent up to now is     1077.8 secs

     total energy              =   -9109.83357692 Ry
     estimated scf accuracy    <       0.00000001 Ry

     iteration # 28     ecut=    60.00 Ry     beta= 0.20
     Davidson diagonalization with overlap
     ethr =  4.59E-12,  avg # of iterations =  1.2

     negative rho (up, down):  6.488E-02 0.000E+00

     total cpu time spent up to now is     1114.6 secs

     End of self-consistent calculation

          k = 0.0000 0.0000 0.0000 ( 90505 PWs)   bands (ev):

  -103.5060-103.5059-103.4980-103.4979-103.1279-103.1279 -69.1784 -69.1784
   -69.1782 -69.1781 -64.0886 -64.0883 -64.0865 -64.0861 -63.9145 -63.9143
   -63.8676 -63.8673 -63.7752 -63.7750 -63.7486 -63.7484 -63.6312 -63.6311
   -63.5804 -63.5804 -63.4167 -63.4166 -35.6372 -35.6368 -35.6364 -35.6360
   -35.5977 -35.5976 -35.5974 -35.5973 -35.5514 -35.5483 -35.5475 -35.5444
   -12.8981 -12.5942 -12.5379 -12.1166 -12.0178 -11.9136 -11.8252 -11.7958
   -11.6840 -11.5096  -6.1727  -5.9172  -5.7135  -5.6733  -5.4330  -5.3949
    -5.3290  -4.7436  -4.6142  -4.2608  -4.1264  -3.9727  -3.9441  -3.8415
    -3.7328  -3.7100  -3.6789  -3.6496  -3.5488  -3.5316  -3.1885  -3.1260
    -3.0075  -2.9771  -2.8404  -2.7834  -2.7447  -2.6703  -2.5625  -2.4638
    -2.3891  -2.3877  -2.3214  -2.2030  -2.1606  -2.1238  -2.0968  -1.9923
    -1.8977  -1.8200  -1.8159  -1.7469  -1.6515  -1.6122  -1.5567  -1.4668
    -1.4497  -1.4230  -1.3964  -1.3101  -1.2004  -1.0938  -1.0472  -0.9610
    -0.8930  -0.7025  -0.6960  -0.6248  -0.4866  -0.4659  -0.2268  -0.2092
     0.2684   0.5099   0.5807   0.7749   0.9337   1.0071   1.0628   1.2309
     1.3205   1.3834   1.6178   1.7001   1.8359   2.2413   2.5003   2.5123
     2.6136   2.6185   2.7580   2.8942

          k = 0.0000 0.4547 0.0000 ( 90582 PWs)   bands (ev):

  -103.5058-103.5057-103.4981-103.4981-103.1279-103.1279 -69.1784 -69.1783
   -69.1781 -69.1780 -64.0884 -64.0884 -64.0864 -64.0863 -63.9140 -63.9139
   -63.8690 -63.8690 -63.7742 -63.7741 -63.7488 -63.7488 -63.6312 -63.6310
   -63.5804 -63.5804 -63.4169 -63.4168 -35.6372 -35.6368 -35.6364 -35.6360
   -35.6007 -35.6005 -35.6003 -35.6002 -35.5510 -35.5480 -35.5472 -35.5442
   -12.8227 -12.5207 -12.4741 -12.0801 -11.9669 -11.8826 -11.7827 -11.7611
   -11.6481 -11.4880  -6.1089  -5.8577  -5.6420  -5.5927  -5.3877  -5.3389
    -5.2495  -4.6856  -4.5712  -4.2401  -4.1375  -4.0629  -4.0016  -3.9383
    -3.9244  -3.7776  -3.7409  -3.6895  -3.4914  -3.4357  -3.3439  -3.1785
    -3.0853  -2.9480  -2.9330  -2.8872  -2.8746  -2.8528  -2.7441  -2.5209
    -2.4885  -2.4240  -2.3896  -2.3125  -2.2648  -2.1412  -2.0674  -2.0166
    -1.9372  -1.9365  -1.8988  -1.8549  -1.7437  -1.6678  -1.6146  -1.5956
    -1.4819  -1.4792  -1.3348  -1.2344  -1.2100  -1.1565  -1.1323  -0.9232
    -0.8691  -0.8029  -0.7707  -0.6432  -0.5287  -0.4883  -0.1251   0.0148
     0.2528   0.4265   0.6660   0.7541   0.8722   0.9131   1.0986   1.2404
     1.2694   1.3691   1.4809   1.6066   1.9383   2.0463   2.1780   2.1978
     2.3711   2.4072   2.9112   3.1664

          k = 0.0000 0.9095 0.0000 ( 90700 PWs)   bands (ev):

  -103.5053-103.5053-103.4986-103.4985-103.1279-103.1279 -69.1782 -69.1782
   -69.1780 -69.1779 -64.0885 -64.0884 -64.0865 -64.0864 -63.9121 -63.9120
   -63.8730 -63.8730 -63.7716 -63.7715 -63.7499 -63.7499 -63.6313 -63.6310
   -63.5805 -63.5804 -63.4172 -63.4172 -35.6377 -35.6375 -35.6370 -35.6367
   -35.6080 -35.6078 -35.6074 -35.6073 -35.5498 -35.5473 -35.5462 -35.5436
   -12.6081 -12.3129 -12.2971 -11.9775 -11.8354 -11.8053 -11.6638 -11.6596
   -11.5564 -11.4317  -5.9638  -5.7229  -5.4691  -5.4165  -5.2782  -5.1961
    -5.0523  -4.7040  -4.5745  -4.3528  -4.2733  -4.2312  -4.1437  -4.1301
    -4.0865  -3.9383  -3.9303  -3.7826  -3.7080  -3.6658  -3.3791  -3.3578
    -3.3568  -3.2179  -3.1561  -3.0837  -3.0391  -2.8796  -2.8003  -2.7637
    -2.6461  -2.6129  -2.5479  -2.4614  -2.3460  -2.2422  -2.1696  -2.1552
    -2.1285  -2.0236  -1.9079  -1.8619  -1.8097  -1.7243  -1.6778  -1.6530
    -1.6491  -1.5485  -1.5296  -1.2520  -1.2087  -1.1670  -1.1504  -1.1138
    -0.9802  -0.9632  -0.8957  -0.7043  -0.6687  -0.5942   0.1516   0.2532
     0.3063   0.6073   0.6387   0.7015   0.8443   0.8699   0.9277   1.0246
     1.3286   1.3642   1.4202   1.6659   1.7256   1.9763   1.9966   2.0830
     2.2103   2.3225   3.3593   3.4619

          k = 0.0000 1.3642 0.0000 ( 90828 PWs)   bands (ev):

  -103.5047-103.5046-103.4992-103.4992-103.1279-103.1279 -69.1780 -69.1780
   -69.1778 -69.1777 -64.0886 -64.0885 -64.0866 -64.0866 -63.9092 -63.9091
   -63.8785 -63.8784 -63.7681 -63.7680 -63.7516 -63.7516 -63.6313 -63.6310
   -63.5805 -63.5805 -63.4176 -63.4175 -35.6402 -35.6400 -35.6396 -35.6394
   -35.6152 -35.6151 -35.6145 -35.6143 -35.5483 -35.5464 -35.5449 -35.5430
   -12.2925 -12.0559 -12.0132 -11.8258 -11.7167 -11.6767 -11.5362 -11.4835
   -11.4593 -11.3647  -5.9141  -5.7124  -5.5110  -5.5079  -5.1895  -5.0925
    -5.0662  -4.8654  -4.7973  -4.5674  -4.4662  -4.4548  -4.2556  -4.1810
    -4.1508  -4.0186  -3.9884  -3.9229  -3.8006  -3.6989  -3.5671  -3.5457
    -3.4086  -3.3561  -3.2213  -3.2125  -3.1717  -3.0318  -2.8863  -2.7850
    -2.7595  -2.7386  -2.6046  -2.5828  -2.4212  -2.2943  -2.2611  -2.2435
    -2.2233  -2.1368  -2.0277  -2.0014  -1.8983  -1.8098  -1.7677  -1.6823
    -1.6607  -1.6172  -1.5933  -1.4803  -1.3054  -1.2796  -1.2702  -1.2100
    -1.1083  -1.0863  -0.9789  -0.8428  -0.8083  -0.7752   0.1154   0.2410
     0.4141   0.6596   0.7524   0.8159   0.9341   0.9651   0.9693   1.0592
     1.2849   1.4482   1.4691   1.7669   1.8438   1.9564   2.1265   2.2494
     2.3571   2.4342   3.0283   3.1429

          k = 0.0000 1.8189 0.0000 ( 90908 PWs)   bands (ev):

  -103.5040-103.5040-103.4999-103.4999-103.1279-103.1279 -69.1778 -69.1778
   -69.1777 -69.1776 -64.0887 -64.0886 -64.0869 -64.0866 -63.9056 -63.9055
   -63.8838 -63.8836 -63.7647 -63.7646 -63.7537 -63.7536 -63.6313 -63.6311
   -63.5806 -63.5805 -63.4178 -63.4177 -35.6444 -35.6442 -35.6438 -35.6436
   -35.6189 -35.6188 -35.6180 -35.6179 -35.5469 -35.5459 -35.5437 -35.5426
   -11.9554 -11.8478 -11.7071 -11.6489 -11.6432 -11.5463 -11.4479 -11.4356
   -11.3368 -11.3164  -6.0782  -6.0142  -5.9583  -5.9466  -5.3110  -5.1929
    -5.0699  -5.0011  -4.8190  -4.7185  -4.4424  -4.3582  -4.3077  -4.0849
    -4.0366  -3.9361  -3.8154  -3.7799  -3.7526  -3.7261  -3.5584  -3.5231
    -3.4991  -3.4252  -3.3901  -3.3765  -3.1245  -3.1103  -3.0065  -2.9771
    -2.7311  -2.7151  -2.6216  -2.6028  -2.4321  -2.3929  -2.3089  -2.2720
    -2.2315  -2.1858  -2.1444  -2.0555  -2.0468  -1.9244  -1.9116  -1.7838
    -1.6469  -1.6248  -1.5886  -1.5738  -1.4199  -1.4065  -1.3529  -1.3444
    -1.2114  -1.1641  -1.1170  -0.9777  -0.9760  -0.8767  -0.0070   0.0956
     0.5453   0.7847   0.7897   0.8271   0.8833   1.1664   1.2332   1.2983
     1.3544   1.4502   1.4806   1.6999   1.7738   2.1159   2.2150   2.3872
     2.6210   2.7135   2.7739   2.8327

          k = 0.0000-2.2737 0.0000 ( 90858 PWs)   bands (ev):

  -103.5037-103.5036-103.5003-103.5002-103.1279-103.1279 -69.1778 -69.1777
   -69.1776 -69.1775 -64.0886 -64.0885 -64.0869 -64.0865 -63.9037 -63.9034
   -63.8863 -63.8862 -63.7629 -63.7628 -63.7549 -63.7548 -63.6312 -63.6311
   -63.5805 -63.5805 -63.4179 -63.4177 -35.6465 -35.6463 -35.6459 -35.6457
   -35.6198 -35.6197 -35.6189 -35.6188 -35.5462 -35.5458 -35.5430 -35.5426
   -11.7800 -11.7657 -11.5918 -11.5472 -11.5165 -11.5046 -11.5025 -11.4524
   -11.2983 -11.2962  -6.2021  -6.1739  -6.1635  -6.1344  -5.4385  -5.3461
    -5.0245  -5.0210  -4.8505  -4.8456  -4.2964  -4.2601  -4.0962  -4.0520
    -4.0099  -3.9227  -3.7784  -3.6710  -3.6556  -3.6490  -3.5910  -3.5817
    -3.5767  -3.5522  -3.3423  -3.3111  -3.2075  -3.1516  -3.0882  -3.0489
    -2.6838  -2.6709  -2.6193  -2.5832  -2.4486  -2.4258  -2.3240  -2.3028
    -2.2467  -2.2405  -2.1045  -2.1010  -2.0188  -2.0017  -1.9677  -1.8695
    -1.6617  -1.6602  -1.5353  -1.5277  -1.4769  -1.4535  -1.4157  -1.4069
    -1.3056  -1.2624  -1.1488  -1.1120  -0.9782  -0.8735  -0.0288   0.0456
     0.6124   0.6646   0.8503   0.8577   0.9320   1.1661   1.2127   1.2235
     1.5173   1.5179   1.6048   1.6111   1.8448   1.9846   2.2137   2.2936
     2.6025   2.6840   2.8309   3.0413

          k =-0.5000 0.0000 0.0000 ( 90550 PWs)   bands (ev):

  -103.5060-103.5059-103.4980-103.4979-103.1279-103.1279 -69.1784 -69.1784
   -69.1782 -69.1781 -64.0885 -64.0885 -64.0865 -64.0865 -63.9144 -63.9144
   -63.8674 -63.8674 -63.7752 -63.7752 -63.7485 -63.7485 -63.6313 -63.6313
   -63.5804 -63.5804 -63.4166 -63.4166 -35.6370 -35.6370 -35.6362 -35.6361
   -35.5977 -35.5976 -35.5974 -35.5973 -35.5504 -35.5504 -35.5455 -35.5454
   -12.8113 -12.8113 -12.2270 -12.2270 -12.0600 -12.0600 -11.7650 -11.7650
   -11.5828 -11.5828  -6.0790  -6.0789  -5.7120  -5.7119  -5.3839  -5.3838
    -5.0051  -5.0051  -4.5691  -4.5691  -3.9635  -3.9635  -3.8485  -3.8485
    -3.6794  -3.6794  -3.5616  -3.5615  -3.5454  -3.5454  -3.2849  -3.2848
    -3.1136  -3.1136  -2.7565  -2.7564  -2.7080  -2.7080  -2.5162  -2.5162
    -2.4077  -2.4077  -2.2445  -2.2445  -2.1341  -2.1340  -1.9957  -1.9957
    -1.8733  -1.8733  -1.7432  -1.7432  -1.6596  -1.6596  -1.5303  -1.5303
    -1.4454  -1.4453  -1.3356  -1.3356  -1.1473  -1.1472  -0.9949  -0.9949
    -0.7941  -0.7940  -0.6101  -0.6101  -0.5299  -0.5299  -0.2091  -0.2091
     0.3749   0.3749   0.7133   0.7133   1.0290   1.0291   1.0969   1.0969
     1.2271   1.2272   1.6733   1.6733   2.0442   2.0443   2.5037   2.5037
     2.6779   2.6779   2.7897   2.7897

          k =-0.5000 0.4547 0.0000 ( 90656 PWs)   bands (ev):

  -103.5058-103.5057-103.4981-103.4981-103.1279-103.1279 -69.1784 -69.1783
   -69.1781 -69.1780 -64.0886 -64.0885 -64.0865 -64.0864 -63.9140 -63.9139
   -63.8690 -63.8690 -63.7743 -63.7742 -63.7489 -63.7489 -63.6312 -63.6312
   -63.5805 -63.5805 -63.4169 -63.4169 -35.6371 -35.6370 -35.6362 -35.6361
   -35.6006 -35.6006 -35.6003 -35.6002 -35.5500 -35.5500 -35.5452 -35.5452
   -12.7374 -12.7374 -12.1659 -12.1659 -12.0258 -12.0258 -11.7291 -11.7291
   -11.5552 -11.5552  -6.0139  -6.0139  -5.6365  -5.6365  -5.3267  -5.3267
    -4.9582  -4.9582  -4.5285  -4.5285  -4.0624  -4.0623  -3.9335  -3.9334
    -3.7281  -3.7281  -3.6039  -3.6038  -3.5574  -3.5574  -3.2728  -3.2728
    -3.1858  -3.1858  -2.8719  -2.8718  -2.8301  -2.8301  -2.6886  -2.6886
    -2.4255  -2.4254  -2.3618  -2.3618  -2.1785  -2.1784  -2.0484  -2.0483
    -1.9062  -1.9061  -1.8879  -1.8879  -1.6980  -1.6980  -1.6078  -1.6077
    -1.4615  -1.4615  -1.3122  -1.3121  -1.1496  -1.1495  -0.9955  -0.9955
    -0.8969  -0.8969  -0.7501  -0.7501  -0.4336  -0.4336  -0.0625  -0.0624
     0.3521   0.3521   0.7581   0.7581   0.9509   0.9509   1.0366   1.0366
     1.2644   1.2644   1.6031   1.6031   1.9111   1.9111   2.2380   2.2380
     2.3602   2.3602   3.0511   3.0511

          k =-0.5000 0.9095 0.0000 ( 90782 PWs)   bands (ev):

  -103.5053-103.5053-103.4986-103.4985-103.1279-103.1279 -69.1782 -69.1782
   -69.1780 -69.1779 -64.0885 -64.0885 -64.0865 -64.0865 -63.9122 -63.9121
   -63.8731 -63.8731 -63.7717 -63.7716 -63.7500 -63.7499 -63.6312 -63.6312
   -63.5805 -63.5805 -63.4173 -63.4173 -35.6377 -35.6376 -35.6369 -35.6368
   -35.6079 -35.6079 -35.6074 -35.6073 -35.5490 -35.5489 -35.5446 -35.5445
   -12.5279 -12.5278 -11.9985 -11.9985 -11.9307 -11.9306 -11.6364 -11.6363
   -11.4804 -11.4803  -5.8635  -5.8635  -5.4437  -5.4437  -5.2085  -5.2085
    -4.9280  -4.9280  -4.4757  -4.4757  -4.2556  -4.2556  -4.1916  -4.1916
    -3.8603  -3.8603  -3.7711  -3.7711  -3.6950  -3.6950  -3.4458  -3.4457
    -3.3293  -3.3292  -3.1046  -3.1046  -2.9654  -2.9654  -2.8231  -2.8230
    -2.6457  -2.6457  -2.5217  -2.5217  -2.2492  -2.2492  -2.1836  -2.1836
    -2.0644  -2.0644  -1.8948  -1.8947  -1.7474  -1.7474  -1.6764  -1.6763
    -1.5374  -1.5374  -1.4261  -1.4261  -1.2442  -1.2442  -1.1187  -1.1186
    -1.0142  -1.0141  -0.7318  -0.7317  -0.5863  -0.5863   0.1799   0.1799
     0.4423   0.4423   0.6787   0.6787   0.9463   0.9464   1.0377   1.0377
     1.1927   1.1928   1.4963   1.4963   1.8706   1.8706   2.0476   2.0476
     2.2508   2.2508   3.4215   3.4215

          k =-0.5000 1.3642 0.0000 ( 90794 PWs)   bands (ev):

  -103.5047-103.5046-103.4992-103.4992-103.1279-103.1279 -69.1780 -69.1780
   -69.1778 -69.1777 -64.0885 -64.0885 -64.0866 -64.0865 -63.9091 -63.9090
   -63.8785 -63.8784 -63.7681 -63.7680 -63.7516 -63.7516 -63.6311 -63.6311
   -63.5805 -63.5805 -63.4175 -63.4175 -35.6402 -35.6401 -35.6395 -35.6394
   -35.6152 -35.6151 -35.6144 -35.6143 -35.5476 -35.5476 -35.5437 -35.5437
   -12.2235 -12.2235 -11.8131 -11.8131 -11.7608 -11.7608 -11.5285 -11.5285
   -11.3864 -11.3864  -5.8332  -5.8332  -5.4091  -5.4091  -5.2521  -5.2521
    -5.0455  -5.0455  -4.5749  -4.5749  -4.4876  -4.4875  -4.1709  -4.1709
    -4.0493  -4.0493  -3.9740  -3.9740  -3.7377  -3.7376  -3.6166  -3.6166
    -3.3361  -3.3361  -3.1695  -3.1695  -3.1224  -3.1224  -2.9232  -2.9231
    -2.7248  -2.7248  -2.6272  -2.6272  -2.3643  -2.3643  -2.2282  -2.2282
    -2.2022  -2.2022  -2.0282  -2.0282  -1.7969  -1.7968  -1.7328  -1.7328
    -1.6078  -1.6078  -1.5684  -1.5684  -1.3012  -1.3011  -1.2496  -1.2495
    -1.0831  -1.0831  -0.9222  -0.9222  -0.7836  -0.7836   0.1573   0.1573
     0.6196   0.6197   0.8202   0.8202   0.9294   0.9294   1.0406   1.0406
     1.3053   1.3054   1.5122   1.5123   2.0455   2.0455   2.1672   2.1672
     2.2854   2.2854   3.1176   3.1178

          k =-0.5000 1.8189 0.0000 ( 90830 PWs)   bands (ev):

  -103.5040-103.5040-103.4999-103.4999-103.1279-103.1279 -69.1778 -69.1778
   -69.1777 -69.1776 -64.0886 -64.0886 -64.0867 -64.0867 -63.9056 -63.9055
   -63.8837 -63.8837 -63.7645 -63.7645 -63.7536 -63.7535 -63.6312 -63.6312
   -63.5804 -63.5804 -63.4177 -63.4177 -35.6443 -35.6443 -35.6437 -35.6436
   -35.6189 -35.6189 -35.6180 -35.6179 -35.5465 -35.5464 -35.5431 -35.5430
   -11.9123 -11.9122 -11.6829 -11.6829 -11.5661 -11.5661 -11.4611 -11.4611
   -11.3204 -11.3204  -6.1147  -6.1147  -5.8411  -5.8411  -5.3163  -5.3163
    -5.0416  -5.0416  -4.7686  -4.7686  -4.3925  -4.3925  -4.2106  -4.2106
    -3.9689  -3.9689  -3.8339  -3.8339  -3.6823  -3.6823  -3.5594  -3.5594
    -3.4703  -3.4702  -3.3150  -3.3149  -3.1016  -3.1016  -2.9666  -2.9666
    -2.8069  -2.8069  -2.5881  -2.5881  -2.4812  -2.4811  -2.3125  -2.3125
    -2.1982  -2.1981  -2.1127  -2.1127  -1.9219  -1.9219  -1.8228  -1.8228
    -1.6581  -1.6581  -1.5826  -1.5826  -1.4349  -1.4349  -1.3072  -1.3072
    -1.2196  -1.2196  -1.0771  -1.0771  -0.9021  -0.9021   0.0456   0.0456
     0.6534   0.6534   0.9128   0.9128   1.0669   1.0669   1.1921   1.1921
     1.3627   1.3627   1.5612   1.5612   1.8977   1.8978   2.4387   2.4387
     2.4922   2.4922   2.8212   2.8213

          k =-0.5000-2.2737 0.0000 ( 90888 PWs)   bands (ev):

  -103.5037-103.5036-103.5003-103.5002-103.1279-103.1279 -69.1778 -69.1777
   -69.1776 -69.1775 -64.0886 -64.0885 -64.0867 -64.0866 -63.9038 -63.9037
   -63.8863 -63.8863 -63.7628 -63.7628 -63.7549 -63.7548 -63.6311 -63.6311
   -63.5805 -63.5805 -63.4179 -63.4179 -35.6464 -35.6464 -35.6458 -35.6457
   -35.6198 -35.6198 -35.6189 -35.6188 -35.5460 -35.5460 -35.5428 -35.5428
   -11.7723 -11.7722 -11.5798 -11.5798 -11.5042 -11.5042 -11.4741 -11.4741
   -11.2972 -11.2972  -6.2871  -6.2871  -6.0147  -6.0146  -5.4265  -5.4265
    -4.9961  -4.9961  -4.9010  -4.9010  -4.2248  -4.2247  -4.1724  -4.1723
    -3.9165  -3.9165  -3.7064  -3.7064  -3.6630  -3.6630  -3.6151  -3.6151
    -3.5112  -3.5112  -3.4097  -3.4097  -3.0701  -3.0701  -2.9183  -2.9183
    -2.8587  -2.8587  -2.5739  -2.5739  -2.4997  -2.4997  -2.3393  -2.3393
    -2.2558  -2.2558  -2.0572  -2.0572  -1.9811  -1.9811  -1.9020  -1.9020
    -1.6841  -1.6841  -1.5391  -1.5391  -1.4899  -1.4899  -1.3610  -1.3610
    -1.3222  -1.3222  -1.1308  -1.1308  -0.9224  -0.9224   0.0139   0.0139
     0.6593   0.6594   0.9005   0.9005   1.0031   1.0031   1.2312   1.2313
     1.5199   1.5199   1.6549   1.6550   1.7718   1.7719   2.3554   2.3554
     2.5022   2.5022   3.0105   3.0107

     the Fermi energy is    -0.3278 ev

!    total energy              =   -9109.83357692 Ry
     total all-electron energy =     -9109.833577 Ry
     estimated scf accuracy    <          5.2E-09 Ry
     smearing contrib. (-TS)   =      -0.00000000 Ry
     internal energy E=F+TS    =   -9109.83357692 Ry

     The total energy is F=E-TS. E is the sum of the following terms:
     one-electron contribution =  -15611.23071072 Ry
     hartree contribution      =    7662.23560237 Ry
     xc contribution           =    -364.20994693 Ry
     ewald contribution        =    5470.99799525 Ry
     one-center paw contrib.   =   -6267.62651688 Ry

     convergence has been achieved in  28 iterations

     negative rho (up, down):  6.488E-02 0.000E+00

     Forces acting on atoms (cartesian axes, Ry/au):

     atom    1 type  1   force =    -0.00959625   -0.02363931    0.01244348
     atom    2 type  1   force =    -0.00968325    0.02362362   -0.01245114
     atom    3 type  1   force =     0.00962535   -0.02365266    0.01244887
     atom    4 type  1   force =     0.00964785    0.02363589   -0.01246155
     atom    5 type  2   force =     0.00482146   -0.02652242    0.00921028
     atom    6 type  2   force =     0.00471485    0.02654122   -0.00924872
     atom    7 type  2   force =    -0.00474910   -0.02651371    0.00920926
     atom    8 type  2   force =    -0.00464567    0.02654565   -0.00925504
     atom    9 type  2   force =    -0.00004875   -0.01058899    0.00885997
     atom   10 type  2   force =     0.00005829    0.01059159   -0.00886070
     atom   11 type  3   force =    -0.00333082    0.01866913    0.02239039
     atom   12 type  3   force =    -0.00331952   -0.01867251   -0.02237037
     atom   13 type  3   force =     0.00414733   -0.01266195    0.02002202
     atom   14 type  3   force =     0.00414744    0.01265739   -0.01999713
     atom   15 type  3   force =     0.00335187    0.01866895    0.02238663
     atom   16 type  3   force =     0.00334590   -0.01867308   -0.02236793
     atom   17 type  3   force =    -0.00418941   -0.01266192    0.02002097
     atom   18 type  3   force =    -0.00420147    0.01265745   -0.01999685
     atom   19 type  3   force =    -0.00005098   -0.01115182    0.01309450
     atom   20 type  3   force =    -0.00004511    0.01114748   -0.01307694

     Total force =     0.114889     Total SCF correction =     0.000374


     Computing stress (Cartesian axis) and pressure


     negative rho (up, down):  6.488E-02 0.000E+00
          total   stress  (Ry/bohr**3)                   (kbar)     P=      -14.73
  -0.00004391   0.00000000  -0.00000000           -6.46        0.00       -0.00
   0.00000000  -0.00015199   0.00001328            0.00      -22.36        1.95
  -0.00000000   0.00001328  -0.00010453           -0.00        1.95      -15.38


     BFGS Geometry Optimization
     Energy error            =      0.0E+00 Ry
     Gradient error          =      2.7E-02 Ry/Bohr

     number of scf cycles    =   1
     number of bfgs steps    =   0

     energy             new  =   -9109.8335769170 Ry

     new trust radius        =       0.0293421276 bohr
     new conv_thr            =       0.0000000100 Ry


ATOMIC_POSITIONS (angstrom)
Ta              15.3867627118        0.9024141825       12.4504250372
Ta               6.5664263570        2.7572707625       12.5854074762
Ta               2.2702491282        0.9024071154       12.4502536215
Ta              11.0905587694        2.7572772580       12.5855621187
Ni              12.8669595637        0.9008885022       11.7665634675
Ni               4.0465951147        2.7588146897       13.2692497420
Ni               4.7899536080        0.9008931151       11.7662962893
Ni              13.6103022329        2.7588170333       13.2695034544
Ni               8.8283208685        0.9093201137       12.3728940893
Ni               0.0081077502        2.7503745100       12.6629209316
Te              14.2112797831        2.7546489597       10.5471052365
Te               5.3909652419        0.9050424976       14.4887342150
Te              10.5976277893        0.9082231473       10.5299290710
Te               1.7773448146        2.7514676820       14.5059129321
Te               3.4454624243        2.7546488638       10.5468800347
Te              12.2657601096        0.9050421947       14.4889559465
Te               7.0594014801        0.9082231648       10.5297659138
Te              15.8796785857        2.7514677167       14.5060852490
Te               0.0082719430        0.9090222727       10.8445483744
Te               8.8285340873        2.7506686722       14.1912577990



     Writing config-only to output data dir /ddn/data/physics/eamoujaes/2D-Ta2Ni3Te5/ELASTIC/C22/OUT/ta2ni3te5.save/ :
     XML data file
     NEW-OLD atomic charge density approx. for the potential

     negative rho (up, down):  6.551E-02 0.000E+00

     total cpu time spent up to now is     1211.4 secs

     Self-consistent Calculation

     iteration #  1     ecut=    60.00 Ry     beta= 0.20
     Davidson diagonalization with overlap
     ethr =  1.00E-06,  avg # of iterations =  7.8

     negative rho (up, down):  6.536E-02 0.000E+00

     total cpu time spent up to now is     1252.4 secs

     total energy              =   -9109.84227067 Ry
     estimated scf accuracy    <       0.00961858 Ry

     iteration #  2     ecut=    60.00 Ry     beta= 0.20
     Davidson diagonalization with overlap
     ethr =  4.37E-06,  avg # of iterations =  3.2

     negative rho (up, down):  6.534E-02 0.000E+00

     total cpu time spent up to now is     1289.9 secs

     total energy              =   -9109.84266190 Ry
     estimated scf accuracy    <       0.06033469 Ry

     iteration #  3     ecut=    60.00 Ry     beta= 0.20
     Davidson diagonalization with overlap
     ethr =  4.37E-06,  avg # of iterations =  2.0

     negative rho (up, down):  6.532E-02 0.000E+00

     total cpu time spent up to now is     1327.0 secs

     total energy              =   -9109.84563861 Ry
     estimated scf accuracy    <       0.00267272 Ry

     iteration #  4     ecut=    60.00 Ry     beta= 0.20
     Davidson diagonalization with overlap
     ethr =  1.21E-06,  avg # of iterations =  1.7

     negative rho (up, down):  6.522E-02 0.000E+00

     total cpu time spent up to now is     1364.2 secs

     total energy              =   -9109.84570955 Ry
     estimated scf accuracy    <       0.00079034 Ry

     iteration #  5     ecut=    60.00 Ry     beta= 0.20
     Davidson diagonalization with overlap
     ethr =  3.59E-07,  avg # of iterations =  2.0

     negative rho (up, down):  6.512E-02 0.000E+00

     total cpu time spent up to now is     1401.3 secs

     total energy              =   -9109.84572335 Ry
     estimated scf accuracy    <       0.00013314 Ry

     iteration #  6     ecut=    60.00 Ry     beta= 0.20
     Davidson diagonalization with overlap
     ethr =  6.05E-08,  avg # of iterations =  2.8

     negative rho (up, down):  6.511E-02 0.000E+00

     total cpu time spent up to now is     1439.0 secs

     total energy              =   -9109.84573843 Ry
     estimated scf accuracy    <       0.00013650 Ry

     iteration #  7     ecut=    60.00 Ry     beta= 0.20
     Davidson diagonalization with overlap
     ethr =  6.05E-08,  avg # of iterations =  1.0

     negative rho (up, down):  6.504E-02 0.000E+00

     total cpu time spent up to now is     1476.1 secs

     total energy              =   -9109.84574925 Ry
     estimated scf accuracy    <       0.00004731 Ry

     iteration #  8     ecut=    60.00 Ry     beta= 0.20
     Davidson diagonalization with overlap
     ethr =  2.15E-08,  avg # of iterations =  2.0

     negative rho (up, down):  6.499E-02 0.000E+00

     total cpu time spent up to now is     1513.7 secs

     total energy              =   -9109.84575377 Ry
     estimated scf accuracy    <       0.00002628 Ry

     iteration #  9     ecut=    60.00 Ry     beta= 0.20
     Davidson diagonalization with overlap
     ethr =  1.19E-08,  avg # of iterations =  1.7

     negative rho (up, down):  6.497E-02 0.000E+00

     total cpu time spent up to now is     1551.0 secs

     total energy              =   -9109.84575621 Ry
     estimated scf accuracy    <       0.00000852 Ry

     iteration # 10     ecut=    60.00 Ry     beta= 0.20
     Davidson diagonalization with overlap
     ethr =  3.87E-09,  avg # of iterations =  2.0

     negative rho (up, down):  6.496E-02 0.000E+00

     total cpu time spent up to now is     1588.2 secs

     total energy              =   -9109.84575719 Ry
     estimated scf accuracy    <       0.00000211 Ry

     iteration # 11     ecut=    60.00 Ry     beta= 0.20
     Davidson diagonalization with overlap
     ethr =  9.57E-10,  avg # of iterations =  2.0

     negative rho (up, down):  6.496E-02 0.000E+00

     total cpu time spent up to now is     1625.6 secs

     total energy              =   -9109.84575763 Ry
     estimated scf accuracy    <       0.00000117 Ry

     iteration # 12     ecut=    60.00 Ry     beta= 0.20
     Davidson diagonalization with overlap
     ethr =  5.30E-10,  avg # of iterations =  1.9

     negative rho (up, down):  6.496E-02 0.000E+00

     total cpu time spent up to now is     1663.0 secs

     total energy              =   -9109.84575780 Ry
     estimated scf accuracy    <       0.00000042 Ry

     iteration # 13     ecut=    60.00 Ry     beta= 0.20
     Davidson diagonalization with overlap
     ethr =  1.92E-10,  avg # of iterations =  2.3

     negative rho (up, down):  6.495E-02 0.000E+00

     total cpu time spent up to now is     1700.5 secs

     total energy              =   -9109.84575789 Ry
     estimated scf accuracy    <       0.00000028 Ry

     iteration # 14     ecut=    60.00 Ry     beta= 0.20
     Davidson diagonalization with overlap
     ethr =  1.28E-10,  avg # of iterations =  1.6

     negative rho (up, down):  6.495E-02 0.000E+00

     total cpu time spent up to now is     1737.8 secs

     total energy              =   -9109.84575800 Ry
     estimated scf accuracy    <       0.00000028 Ry

     iteration # 15     ecut=    60.00 Ry     beta= 0.20
     Davidson diagonalization with overlap
     ethr =  1.28E-10,  avg # of iterations =  1.9

     negative rho (up, down):  6.495E-02 0.000E+00

     total cpu time spent up to now is     1775.2 secs

     total energy              =   -9109.84575802 Ry
     estimated scf accuracy    <       0.00000002 Ry

     iteration # 16     ecut=    60.00 Ry     beta= 0.20
     Davidson diagonalization with overlap
     ethr =  7.51E-12,  avg # of iterations =  5.2

     negative rho (up, down):  6.495E-02 0.000E+00

     total cpu time spent up to now is     1813.4 secs

     total energy              =   -9109.84575802 Ry
     estimated scf accuracy    <       0.00000003 Ry

     iteration # 17     ecut=    60.00 Ry     beta= 0.20
     Davidson diagonalization with overlap
     ethr =  7.51E-12,  avg # of iterations =  1.0

     negative rho (up, down):  6.495E-02 0.000E+00

     total cpu time spent up to now is     1850.8 secs

     total energy              =   -9109.84575802 Ry
     estimated scf accuracy    <       0.00000001 Ry

     iteration # 18     ecut=    60.00 Ry     beta= 0.20
     Davidson diagonalization with overlap
     ethr =  4.79E-12,  avg # of iterations =  1.0

     negative rho (up, down):  6.496E-02 0.000E+00

     total cpu time spent up to now is     1887.6 secs

     End of self-consistent calculation

          k = 0.0000 0.0000 0.0000 ( 90505 PWs)   bands (ev):

  -103.5221-103.5221-103.5142-103.5141-103.1275-103.1275 -69.1737 -69.1736
   -69.1734 -69.1734 -64.1062 -64.1059 -64.1044 -64.1040 -63.9333 -63.9330
   -63.8857 -63.8853 -63.7880 -63.7878 -63.7613 -63.7611 -63.6265 -63.6264
   -63.5782 -63.5781 -63.4231 -63.4230 -35.6328 -35.6324 -35.6320 -35.6316
   -35.5964 -35.5963 -35.5961 -35.5960 -35.5492 -35.5460 -35.5455 -35.5422
   -12.9246 -12.6274 -12.5547 -12.1249 -12.0370 -11.9179 -11.8466 -11.8095
   -11.6946 -11.5254  -6.1844  -5.9323  -5.7283  -5.6983  -5.4491  -5.4003
    -5.3489  -4.7699  -4.6361  -4.2715  -4.1528  -3.9749  -3.9544  -3.8411
    -3.7788  -3.7671  -3.7105  -3.6575  -3.5839  -3.5773  -3.2180  -3.1527
    -3.0187  -2.9876  -2.8810  -2.7954  -2.7511  -2.6916  -2.5643  -2.4585
    -2.4102  -2.3823  -2.3269  -2.2174  -2.1624  -2.1289  -2.0834  -1.9907
    -1.9169  -1.8574  -1.8181  -1.7424  -1.6843  -1.6473  -1.5531  -1.4823
    -1.4804  -1.4556  -1.3879  -1.3053  -1.1876  -1.0787  -1.0750  -0.9835
    -0.9012  -0.7051  -0.6992  -0.6328  -0.4898  -0.4784  -0.2070  -0.2064
     0.2287   0.5066   0.5958   0.7904   0.9564   1.0137   1.0640   1.2465
     1.3156   1.3846   1.6197   1.7020   1.8651   2.2648   2.5534   2.5549
     2.6387   2.6592   2.8259   2.9068

          k = 0.0000 0.4547 0.0000 ( 90582 PWs)   bands (ev):

  -103.5220-103.5219-103.5144-103.5143-103.1275-103.1275 -69.1736 -69.1736
   -69.1734 -69.1733 -64.1060 -64.1059 -64.1043 -64.1042 -63.9326 -63.9325
   -63.8873 -63.8872 -63.7870 -63.7869 -63.7616 -63.7615 -63.6266 -63.6263
   -63.5782 -63.5781 -63.4234 -63.4233 -35.6327 -35.6323 -35.6319 -35.6315
   -35.5995 -35.5994 -35.5992 -35.5991 -35.5488 -35.5457 -35.5451 -35.5420
   -12.8486 -12.5532 -12.4906 -12.0887 -11.9853 -11.8880 -11.8049 -11.7743
   -11.6587 -11.5043  -6.1215  -5.8731  -5.6572  -5.6186  -5.4033  -5.3440
    -5.2689  -4.7116  -4.5948  -4.2530  -4.1575  -4.0814  -4.0140  -3.9695
    -3.9563  -3.8265  -3.7607  -3.7065  -3.5206  -3.4598  -3.3687  -3.2019
    -3.0963  -2.9681  -2.9486  -2.9199  -2.8872  -2.8620  -2.7607  -2.5354
    -2.4970  -2.4242  -2.3940  -2.3240  -2.2532  -2.1556  -2.0976  -2.0093
    -1.9525  -1.9401  -1.9098  -1.8635  -1.7720  -1.6901  -1.6229  -1.6070
    -1.5000  -1.4950  -1.3241  -1.2325  -1.2101  -1.1543  -1.1460  -0.9238
    -0.8717  -0.8203  -0.7701  -0.6610  -0.5271  -0.4951  -0.1271   0.0143
     0.2526   0.4179   0.6781   0.7686   0.8764   0.9323   1.1151   1.2389
     1.2664   1.3817   1.4843   1.6111   1.9619   2.0750   2.2171   2.2284
     2.4046   2.4143   2.9326   3.1828

          k = 0.0000 0.9095 0.0000 ( 90700 PWs)   bands (ev):

  -103.5215-103.5214-103.5149-103.5148-103.1275-103.1275 -69.1735 -69.1734
   -69.1732 -69.1732 -64.1061 -64.1060 -64.1045 -64.1044 -63.9304 -63.9303
   -63.8916 -63.8915 -63.7843 -63.7842 -63.7627 -63.7626 -63.6266 -63.6263
   -63.5782 -63.5781 -63.4237 -63.4236 -35.6329 -35.6326 -35.6322 -35.6318
   -35.6073 -35.6071 -35.6068 -35.6067 -35.5476 -35.5450 -35.5441 -35.5414
   -12.6319 -12.3435 -12.3126 -11.9868 -11.8524 -11.8139 -11.6834 -11.6750
   -11.5671 -11.4498  -5.9798  -5.7393  -5.4856  -5.4452  -5.2925  -5.2029
    -5.0713  -4.7411  -4.5991  -4.3753  -4.3024  -4.2539  -4.1624  -4.1578
    -4.0968  -3.9703  -3.9591  -3.7929  -3.7166  -3.6905  -3.4012  -3.3826
    -3.3803  -3.2318  -3.1626  -3.0939  -3.0610  -2.9028  -2.8037  -2.7859
    -2.6538  -2.6220  -2.5626  -2.4661  -2.3581  -2.2550  -2.1805  -2.1745
    -2.1370  -2.0294  -1.9303  -1.8677  -1.8162  -1.7466  -1.6829  -1.6630
    -1.6578  -1.5709  -1.5470  -1.2466  -1.2151  -1.1531  -1.1418  -1.1090
    -0.9838  -0.9796  -0.8997  -0.7153  -0.6708  -0.5982   0.1487   0.2525
     0.3006   0.6292   0.6445   0.7028   0.8548   0.8878   0.9334   1.0264
     1.3398   1.3652   1.4280   1.6724   1.7417   2.0009   2.0185   2.0978
     2.2372   2.3282   3.3860   3.4816

          k = 0.0000 1.3642 0.0000 ( 90828 PWs)   bands (ev):

  -103.5207-103.5207-103.5156-103.5155-103.1275-103.1275 -69.1733 -69.1732
   -69.1730 -69.1730 -64.1061 -64.1061 -64.1046 -64.1045 -63.9269 -63.9268
   -63.8976 -63.8975 -63.7806 -63.7805 -63.7646 -63.7645 -63.6266 -63.6263
   -63.5783 -63.5782 -63.4241 -63.4240 -35.6351 -35.6348 -35.6344 -35.6342
   -35.6150 -35.6148 -35.6143 -35.6141 -35.5460 -35.5441 -35.5427 -35.5408
   -12.3131 -12.0711 -12.0404 -11.8351 -11.7294 -11.6941 -11.5452 -11.5074
   -11.4707 -11.3853  -5.9374  -5.7335  -5.5409  -5.5373  -5.2020  -5.1262
    -5.0888  -4.8887  -4.8148  -4.5881  -4.4869  -4.4810  -4.2626  -4.1918
    -4.1758  -4.0475  -4.0064  -3.9364  -3.8055  -3.7054  -3.5835  -3.5687
    -3.4327  -3.3553  -3.2318  -3.2231  -3.1884  -3.0348  -2.9121  -2.7961
    -2.7702  -2.7507  -2.6309  -2.5958  -2.4389  -2.3053  -2.2743  -2.2607
    -2.2369  -2.1436  -2.0477  -2.0261  -1.9088  -1.8203  -1.7825  -1.6983
    -1.6765  -1.6245  -1.6057  -1.4866  -1.3055  -1.2785  -1.2688  -1.2138
    -1.0988  -1.0980  -0.9826  -0.8492  -0.8065  -0.7809   0.1157   0.2356
     0.4167   0.6680   0.7691   0.8198   0.9444   0.9731   0.9820   1.0525
     1.2917   1.4569   1.4749   1.7764   1.8397   1.9675   2.1531   2.2645
     2.3788   2.4532   3.0635   3.1610

          k = 0.0000 1.8189 0.0000 ( 90908 PWs)   bands (ev):

  -103.5199-103.5198-103.5164-103.5163-103.1275-103.1275 -69.1731 -69.1730
   -69.1729 -69.1729 -64.1063 -64.1062 -64.1048 -64.1046 -63.9225 -63.9224
   -63.9037 -63.9036 -63.7768 -63.7768 -63.7670 -63.7668 -63.6267 -63.6265
   -63.5783 -63.5782 -63.4242 -63.4242 -35.6395 -35.6393 -35.6389 -35.6387
   -35.6185 -35.6184 -35.6176 -35.6175 -35.5445 -35.5435 -35.5414 -35.5404
   -11.9717 -11.8641 -11.7298 -11.6643 -11.6503 -11.5659 -11.4559 -11.4493
   -11.3602 -11.3393  -6.1080  -6.0444  -5.9900  -5.9825  -5.3249  -5.2151
    -5.0954  -5.0315  -4.8413  -4.7442  -4.4506  -4.3731  -4.3286  -4.0891
    -4.0424  -3.9470  -3.8283  -3.7815  -3.7608  -3.7337  -3.5621  -3.5327
    -3.5053  -3.4461  -3.3936  -3.3903  -3.1415  -3.1350  -3.0260  -2.9903
    -2.7486  -2.7264  -2.6558  -2.6206  -2.4453  -2.3995  -2.3308  -2.3002
    -2.2403  -2.2097  -2.1528  -2.0753  -2.0695  -1.9392  -1.9335  -1.7983
    -1.6570  -1.6346  -1.5946  -1.5830  -1.4237  -1.4103  -1.3610  -1.3467
    -1.2142  -1.1649  -1.1296  -0.9762  -0.9670  -0.8833  -0.0052   0.0875
     0.5485   0.7986   0.8065   0.8285   0.8985   1.1582   1.2341   1.2964
     1.3585   1.4612   1.4801   1.7150   1.7631   2.1221   2.2187   2.4093
     2.6532   2.7545   2.7939   2.8534

          k = 0.0000-2.2737 0.0000 ( 90858 PWs)   bands (ev):

  -103.5195-103.5194-103.5169-103.5168-103.1275-103.1275 -69.1730 -69.1729
   -69.1729 -69.1728 -64.1062 -64.1061 -64.1049 -64.1045 -63.9199 -63.9196
   -63.9070 -63.9069 -63.7747 -63.7746 -63.7684 -63.7683 -63.6265 -63.6264
   -63.5782 -63.5782 -63.4243 -63.4242 -35.6418 -35.6416 -35.6412 -35.6410
   -35.6192 -35.6191 -35.6183 -35.6182 -35.5438 -35.5435 -35.5407 -35.5404
   -11.7941 -11.7828 -11.6014 -11.5636 -11.5301 -11.5283 -11.5135 -11.4633
   -11.3222 -11.3204  -6.2325  -6.2052  -6.2008  -6.1696  -5.4502  -5.3713
    -5.0495  -5.0413  -4.8772  -4.8758  -4.3003  -4.2713  -4.1097  -4.0711
    -4.0127  -3.9389  -3.7654  -3.6731  -3.6549  -3.6516  -3.5930  -3.5845
    -3.5828  -3.5625  -3.3626  -3.3281  -3.2303  -3.1766  -3.1072  -3.0792
    -2.6933  -2.6867  -2.6425  -2.6154  -2.4586  -2.4282  -2.3500  -2.3171
    -2.2957  -2.2634  -2.1116  -2.1104  -2.0349  -2.0335  -1.9678  -1.8928
    -1.6747  -1.6686  -1.5396  -1.5337  -1.4800  -1.4630  -1.4215  -1.4144
    -1.3107  -1.2784  -1.1456  -1.1157  -0.9644  -0.8787  -0.0245   0.0339
     0.6181   0.6616   0.8685   0.8752   0.9605   1.1524   1.2003   1.2090
     1.5064   1.5083   1.6223   1.6329   1.8552   1.9798   2.2282   2.3039
     2.6437   2.7060   2.8659   3.0457

          k =-0.5000 0.0000 0.0000 ( 90550 PWs)   bands (ev):

  -103.5221-103.5221-103.5142-103.5141-103.1275-103.1275 -69.1737 -69.1736
   -69.1734 -69.1734 -64.1061 -64.1061 -64.1044 -64.1044 -63.9332 -63.9331
   -63.8854 -63.8854 -63.7880 -63.7880 -63.7612 -63.7611 -63.6266 -63.6266
   -63.5781 -63.5781 -63.4231 -63.4230 -35.6327 -35.6326 -35.6318 -35.6317
   -35.5964 -35.5963 -35.5961 -35.5961 -35.5482 -35.5482 -35.5433 -35.5432
   -12.8379 -12.8379 -12.2495 -12.2495 -12.0698 -12.0698 -11.7738 -11.7738
   -11.6001 -11.6001  -6.0929  -6.0928  -5.7280  -5.7280  -5.3979  -5.3978
    -5.0288  -5.0288  -4.5897  -4.5896  -3.9676  -3.9675  -3.8661  -3.8660
    -3.7241  -3.7241  -3.5845  -3.5845  -3.5818  -3.5818  -3.3031  -3.3031
    -3.1390  -3.1389  -2.7665  -2.7664  -2.7310  -2.7309  -2.5262  -2.5262
    -2.4073  -2.4072  -2.2556  -2.2556  -2.1343  -2.1342  -1.9968  -1.9967
    -1.8716  -1.8715  -1.7807  -1.7806  -1.6584  -1.6584  -1.5681  -1.5681
    -1.4630  -1.4630  -1.3297  -1.3297  -1.1348  -1.1348  -1.0190  -1.0190
    -0.7992  -0.7991  -0.6172  -0.6172  -0.5372  -0.5372  -0.2008  -0.2007
     0.3551   0.3551   0.7286   0.7286   1.0344   1.0344   1.1190   1.1190
     1.2281   1.2281   1.6731   1.6732   2.0626   2.0627   2.5530   2.5530
     2.7275   2.7275   2.8209   2.8209

          k =-0.5000 0.4547 0.0000 ( 90656 PWs)   bands (ev):

  -103.5220-103.5219-103.5144-103.5143-103.1275-103.1275 -69.1736 -69.1736
   -69.1734 -69.1733 -64.1061 -64.1061 -64.1044 -64.1043 -63.9325 -63.9325
   -63.8873 -63.8872 -63.7871 -63.7870 -63.7616 -63.7616 -63.6266 -63.6266
   -63.5782 -63.5782 -63.4234 -63.4233 -35.6326 -35.6325 -35.6317 -35.6316
   -35.5995 -35.5994 -35.5992 -35.5991 -35.5478 -35.5478 -35.5430 -35.5430
   -12.7633 -12.7633 -12.1880 -12.1880 -12.0359 -12.0358 -11.7380 -11.7380
   -11.5729 -11.5729  -6.0284  -6.0284  -5.6529  -5.6529  -5.3400  -5.3400
    -4.9825  -4.9825  -4.5495  -4.5495  -4.0742  -4.0742  -3.9683  -3.9682
    -3.7527  -3.7527  -3.6356  -3.6356  -3.5759  -3.5759  -3.2949  -3.2949
    -3.2042  -3.2042  -2.8852  -2.8851  -2.8500  -2.8500  -2.7054  -2.7054
    -2.4310  -2.4309  -2.3657  -2.3657  -2.1936  -2.1936  -2.0530  -2.0530
    -1.9108  -1.9108  -1.9013  -1.9012  -1.7123  -1.7123  -1.6261  -1.6261
    -1.4806  -1.4805  -1.3101  -1.3100  -1.1395  -1.1395  -1.0039  -1.0039
    -0.9044  -0.9044  -0.7633  -0.7633  -0.4353  -0.4353  -0.0660  -0.0660
     0.3497   0.3497   0.7709   0.7709   0.9573   0.9573   1.0512   1.0513
     1.2678   1.2679   1.6064   1.6064   1.9368   1.9368   2.2708   2.2708
     2.3815   2.3815   3.0746   3.0746

          k =-0.5000 0.9095 0.0000 ( 90782 PWs)   bands (ev):

  -103.5215-103.5214-103.5149-103.5148-103.1275-103.1275 -69.1735 -69.1734
   -69.1732 -69.1732 -64.1061 -64.1061 -64.1045 -64.1044 -63.9305 -63.9304
   -63.8917 -63.8916 -63.7844 -63.7843 -63.7628 -63.7627 -63.6266 -63.6265
   -63.5783 -63.5782 -63.4238 -63.4237 -35.6328 -35.6327 -35.6320 -35.6319
   -35.6073 -35.6072 -35.6068 -35.6067 -35.5467 -35.5467 -35.5423 -35.5423
   -12.5517 -12.5517 -12.0202 -12.0202 -11.9411 -11.9410 -11.6461 -11.6461
   -11.4991 -11.4990  -5.8804  -5.8804  -5.4616  -5.4615  -5.2204  -5.2204
    -4.9577  -4.9576  -4.5001  -4.5001  -4.2761  -4.2761  -4.2197  -4.2197
    -3.8873  -3.8873  -3.7931  -3.7931  -3.7043  -3.7042  -3.4661  -3.4661
    -3.3468  -3.3467  -3.1228  -3.1227  -2.9742  -2.9741  -2.8446  -2.8445
    -2.6551  -2.6550  -2.5309  -2.5309  -2.2605  -2.2604  -2.1970  -2.1970
    -2.0772  -2.0771  -1.9033  -1.9033  -1.7598  -1.7598  -1.6861  -1.6860
    -1.5556  -1.5555  -1.4340  -1.4340  -1.2451  -1.2451  -1.1135  -1.1135
    -1.0167  -1.0166  -0.7345  -0.7345  -0.5908  -0.5908   0.1731   0.1731
     0.4478   0.4478   0.6880   0.6880   0.9530   0.9530   1.0543   1.0543
     1.1940   1.1940   1.5063   1.5063   1.8856   1.8856   2.0774   2.0774
     2.2559   2.2559   3.4502   3.4502

          k =-0.5000 1.3642 0.0000 ( 90794 PWs)   bands (ev):

  -103.5207-103.5207-103.5156-103.5155-103.1275-103.1275 -69.1733 -69.1732
   -69.1730 -69.1730 -64.1061 -64.1060 -64.1046 -64.1045 -63.9268 -63.9268
   -63.8976 -63.8975 -63.7806 -63.7805 -63.7645 -63.7645 -63.6265 -63.6265
   -63.5782 -63.5782 -63.4240 -63.4240 -35.6350 -35.6349 -35.6343 -35.6343
   -35.6149 -35.6149 -35.6142 -35.6141 -35.5453 -35.5453 -35.5415 -35.5414
   -12.2440 -12.2440 -11.8314 -11.8313 -11.7746 -11.7746 -11.5398 -11.5398
   -11.4062 -11.4062  -5.8568  -5.8567  -5.4386  -5.4386  -5.2736  -5.2735
    -5.0660  -5.0659  -4.5972  -4.5971  -4.5100  -4.5100  -4.1849  -4.1849
    -4.0650  -4.0649  -3.9961  -3.9961  -3.7518  -3.7518  -3.6289  -3.6289
    -3.3431  -3.3431  -3.1935  -3.1934  -3.1232  -3.1231  -2.9429  -2.9428
    -2.7384  -2.7384  -2.6423  -2.6422  -2.3800  -2.3799  -2.2429  -2.2429
    -2.2129  -2.2128  -2.0486  -2.0486  -1.8108  -1.8108  -1.7459  -1.7459
    -1.6210  -1.6210  -1.5771  -1.5771  -1.3058  -1.3057  -1.2481  -1.2481
    -1.0775  -1.0774  -0.9299  -0.9299  -0.7865  -0.7865   0.1543   0.1543
     0.6285   0.6286   0.8270   0.8270   0.9332   0.9332   1.0467   1.0467
     1.3158   1.3159   1.5188   1.5188   2.0542   2.0542   2.1819   2.1819
     2.3052   2.3052   3.1514   3.1514

          k =-0.5000 1.8189 0.0000 ( 90830 PWs)   bands (ev):

  -103.5199-103.5198-103.5164-103.5163-103.1275-103.1275 -69.1731 -69.1730
   -69.1729 -69.1729 -64.1062 -64.1061 -64.1047 -64.1047 -63.9225 -63.9225
   -63.9037 -63.9036 -63.7767 -63.7766 -63.7668 -63.7667 -63.6265 -63.6265
   -63.5782 -63.5781 -63.4242 -63.4242 -35.6394 -35.6393 -35.6388 -35.6387
   -35.6185 -35.6184 -35.6176 -35.6175 -35.5441 -35.5441 -35.5408 -35.5408
   -11.9288 -11.9288 -11.6993 -11.6993 -11.5822 -11.5822 -11.4721 -11.4720
   -11.3431 -11.3431  -6.1459  -6.1459  -5.8744  -5.8743  -5.3348  -5.3347
    -5.0687  -5.0687  -4.7908  -4.7907  -4.4059  -4.4059  -4.2244  -4.2244
    -3.9756  -3.9755  -3.8414  -3.8413  -3.6909  -3.6909  -3.5751  -3.5751
    -3.4726  -3.4725  -3.3231  -3.3231  -3.1200  -3.1199  -2.9881  -2.9880
    -2.8248  -2.8248  -2.6076  -2.6075  -2.4986  -2.4986  -2.3259  -2.3259
    -2.2195  -2.2195  -2.1308  -2.1308  -1.9443  -1.9442  -1.8357  -1.8357
    -1.6674  -1.6674  -1.5897  -1.5896  -1.4407  -1.4406  -1.3082  -1.3082
    -1.2248  -1.2248  -1.0818  -1.0818  -0.9011  -0.9011   0.0428   0.0428
     0.6603   0.6603   0.9213   0.9214   1.0776   1.0776   1.1901   1.1901
     1.3610   1.3610   1.5705   1.5706   1.8978   1.8978   2.4685   2.4685
     2.5019   2.5019   2.8503   2.8503

          k =-0.5000-2.2737 0.0000 ( 90888 PWs)   bands (ev):

  -103.5195-103.5194-103.5169-103.5168-103.1275-103.1275 -69.1730 -69.1729
   -69.1729 -69.1728 -64.1062 -64.1061 -64.1047 -64.1046 -63.9200 -63.9199
   -63.9071 -63.9070 -63.7747 -63.7746 -63.7684 -63.7683 -63.6265 -63.6264
   -63.5782 -63.5782 -63.4244 -63.4243 -35.6417 -35.6417 -35.6411 -35.6410
   -35.6192 -35.6192 -35.6183 -35.6182 -35.5437 -35.5436 -35.5406 -35.5405
   -11.7879 -11.7879 -11.5894 -11.5894 -11.5291 -11.5291 -11.4824 -11.4823
   -11.3211 -11.3211  -6.3204  -6.3204  -6.0489  -6.0488  -5.4443  -5.4442
    -5.0223  -5.0223  -4.9249  -4.9249  -4.2329  -4.2329  -4.1865  -4.1865
    -3.9195  -3.9194  -3.7134  -3.7134  -3.6687  -3.6687  -3.6173  -3.6173
    -3.5109  -3.5109  -3.4356  -3.4355  -3.0839  -3.0839  -2.9369  -2.9369
    -2.8859  -2.8859  -2.5974  -2.5974  -2.5112  -2.5111  -2.3583  -2.3583
    -2.2875  -2.2875  -2.0607  -2.0607  -2.0064  -2.0063  -1.9168  -1.9168
    -1.6950  -1.6950  -1.5440  -1.5439  -1.4953  -1.4952  -1.3638  -1.3638
    -1.3345  -1.3345  -1.1327  -1.1326  -0.9193  -0.9193   0.0106   0.0106
     0.6632   0.6632   0.9143   0.9143   1.0085   1.0085   1.2250   1.2250
     1.5101   1.5102   1.6730   1.6731   1.7699   1.7699   2.3897   2.3897
     2.5123   2.5123   3.0442   3.0443

     the Fermi energy is    -0.3202 ev

!    total energy              =   -9109.84575801 Ry
     total all-electron energy =     -9109.845758 Ry
     estimated scf accuracy    <          7.9E-09 Ry
     smearing contrib. (-TS)   =      -0.00000000 Ry
     internal energy E=F+TS    =   -9109.84575801 Ry

     The total energy is F=E-TS. E is the sum of the following terms:
     one-electron contribution =  -15635.49857687 Ry
     hartree contribution      =    7674.31841927 Ry
     xc contribution           =    -364.26437810 Ry
     ewald contribution        =    5483.22965178 Ry
     one-center paw contrib.   =   -6267.63087410 Ry

     convergence has been achieved in  18 iterations

     negative rho (up, down):  6.496E-02 0.000E+00

     Forces acting on atoms (cartesian axes, Ry/au):

     atom    1 type  1   force =    -0.00719778   -0.01985632    0.00985906
     atom    2 type  1   force =    -0.00714725    0.01986193   -0.00985766
     atom    3 type  1   force =     0.00713411   -0.01985585    0.00985571
     atom    4 type  1   force =     0.00719122    0.01986684   -0.00985154
     atom    5 type  2   force =     0.00491474   -0.02119908    0.00863704
     atom    6 type  2   force =     0.00487048    0.02117159   -0.00862348
     atom    7 type  2   force =    -0.00485520   -0.02119634    0.00857989
     atom    8 type  2   force =    -0.00483764    0.02116640   -0.00862321
     atom    9 type  2   force =     0.00006180   -0.00996720    0.00881425
     atom   10 type  2   force =    -0.00002807    0.00996096   -0.00881832
     atom   11 type  3   force =    -0.00352777    0.01505556    0.02009197
     atom   12 type  3   force =    -0.00352754   -0.01504432   -0.02008903
     atom   13 type  3   force =     0.00297851   -0.01110194    0.01596652
     atom   14 type  3   force =     0.00298094    0.01110854   -0.01595129
     atom   15 type  3   force =     0.00354923    0.01505495    0.02009190
     atom   16 type  3   force =     0.00354799   -0.01504223   -0.02009147
     atom   17 type  3   force =    -0.00302009   -0.01110151    0.01596149
     atom   18 type  3   force =    -0.00301100    0.01110911   -0.01595113
     atom   19 type  3   force =    -0.00003152   -0.01052354    0.01325686
     atom   20 type  3   force =    -0.00004518    0.01053245   -0.01325758

     Total force =     0.096975     Total SCF correction =     0.000475


     Computing stress (Cartesian axis) and pressure


     negative rho (up, down):  6.496E-02 0.000E+00
          total   stress  (Ry/bohr**3)                   (kbar)     P=      -13.93
  -0.00004166   0.00000000  -0.00000000           -6.13        0.00       -0.00
   0.00000000  -0.00014684   0.00001260            0.00      -21.60        1.85
  -0.00000000   0.00001260  -0.00009564           -0.00        1.85      -14.07

     Energy error            =      1.2E-02 Ry
     Gradient error          =      2.1E-02 Ry/Bohr

     number of scf cycles    =   2
     number of bfgs steps    =   1

     energy             old  =   -9109.8335769170 Ry
     energy             new  =   -9109.8457580148 Ry

     CASE: energy            _new < energy            _old


     WARNING: bfgs curvature condition failed, Theta= 0.950
     new trust radius        =       0.0322763404 bohr
     new conv_thr            =       0.0000000021 Ry


ATOMIC_POSITIONS (angstrom)
Ta              15.3818589572        0.8890088032       12.4571115949
Ta               6.5615503537        2.7706789599       12.5787214570
Ta               2.2751144357        0.8890014539       12.4569383270
Ta              11.0954606664        2.7706890486       12.5788794710
Ni              12.8702330910        0.8865210801       11.7723481517
Ni               4.0498364310        2.7731657817       13.2634718542
Ni               4.7867203391        0.8865277775       11.7720452850
Ni              13.6070843865        2.7731650828       13.2637254619
Ni               8.8283573048        0.9026462736       12.3787741505
Ni               0.0080927664        2.7570445746       12.6570383047
Te              14.2089356856        2.7648454631       10.5606035986
Te               5.3886217743        0.8948528550       14.4752385519
Te              10.5996646314        0.9007520088       10.5407521858
Te               1.7793831795        2.7589427366       14.4951003943
Te               3.4478208194        2.7648449829       10.5603781916
Te              12.2681174691        0.8948538350       14.4754588707
Te               7.0573368853        0.9007522953       10.5405858466
Te              15.8776191393        2.7589431286       14.4952728237
Te               0.0082500845        0.9019771363       10.8533821422
Te               8.8285039631        2.7577191768       14.1824243364



     Writing config-only to output data dir /ddn/data/physics/eamoujaes/2D-Ta2Ni3Te5/ELASTIC/C22/OUT/ta2ni3te5.save/ :
     XML data file
     NEW-OLD atomic charge density approx. for the potential

     negative rho (up, down):  6.567E-02 0.000E+00

     total cpu time spent up to now is     1983.8 secs

     Self-consistent Calculation

     iteration #  1     ecut=    60.00 Ry     beta= 0.20
     Davidson diagonalization with overlap
     ethr =  1.00E-06,  avg # of iterations =  7.3

     negative rho (up, down):  6.550E-02 0.000E+00

     total cpu time spent up to now is     2025.0 secs

     total energy              =   -9109.85244838 Ry
     estimated scf accuracy    <       0.01126256 Ry

     iteration #  2     ecut=    60.00 Ry     beta= 0.20
     Davidson diagonalization with overlap
     ethr =  5.12E-06,  avg # of iterations =  3.3

     negative rho (up, down):  6.549E-02 0.000E+00

     total cpu time spent up to now is     2062.5 secs

     total energy              =   -9109.85313159 Ry
     estimated scf accuracy    <       0.06442121 Ry

     iteration #  3     ecut=    60.00 Ry     beta= 0.20
     Davidson diagonalization with overlap
     ethr =  5.12E-06,  avg # of iterations =  2.0

     negative rho (up, down):  6.547E-02 0.000E+00

     total cpu time spent up to now is     2099.8 secs

     total energy              =   -9109.85637323 Ry
     estimated scf accuracy    <       0.00341776 Ry

     iteration #  4     ecut=    60.00 Ry     beta= 0.20
     Davidson diagonalization with overlap
     ethr =  1.55E-06,  avg # of iterations =  1.5

     negative rho (up, down):  6.537E-02 0.000E+00

     total cpu time spent up to now is     2136.9 secs

     total energy              =   -9109.85646973 Ry
     estimated scf accuracy    <       0.00092908 Ry

     iteration #  5     ecut=    60.00 Ry     beta= 0.20
     Davidson diagonalization with overlap
     ethr =  4.22E-07,  avg # of iterations =  2.0

     negative rho (up, down):  6.525E-02 0.000E+00

     total cpu time spent up to now is     2174.1 secs

     total energy              =   -9109.85647601 Ry
     estimated scf accuracy    <       0.00016361 Ry

     iteration #  6     ecut=    60.00 Ry     beta= 0.20
     Davidson diagonalization with overlap
     ethr =  7.44E-08,  avg # of iterations =  2.8

     negative rho (up, down):  6.521E-02 0.000E+00

     total cpu time spent up to now is     2211.8 secs

     total energy              =   -9109.85649963 Ry
     estimated scf accuracy    <       0.00005264 Ry

     iteration #  7     ecut=    60.00 Ry     beta= 0.20
     Davidson diagonalization with overlap
     ethr =  2.39E-08,  avg # of iterations =  2.0

     negative rho (up, down):  6.516E-02 0.000E+00

     total cpu time spent up to now is     2249.6 secs

     total energy              =   -9109.85650321 Ry
     estimated scf accuracy    <       0.00013590 Ry

     iteration #  8     ecut=    60.00 Ry     beta= 0.20
     Davidson diagonalization with overlap
     ethr =  2.39E-08,  avg # of iterations =  1.1

     negative rho (up, down):  6.513E-02 0.000E+00

     total cpu time spent up to now is     2287.4 secs

     total energy              =   -9109.85651019 Ry
     estimated scf accuracy    <       0.00003163 Ry

     iteration #  9     ecut=    60.00 Ry     beta= 0.20
     Davidson diagonalization with overlap
     ethr =  1.44E-08,  avg # of iterations =  1.4

     negative rho (up, down):  6.509E-02 0.000E+00

     total cpu time spent up to now is     2324.8 secs

     total energy              =   -9109.85651242 Ry
     estimated scf accuracy    <       0.00001698 Ry

     iteration # 10     ecut=    60.00 Ry     beta= 0.20
     Davidson diagonalization with overlap
     ethr =  7.72E-09,  avg # of iterations =  2.0

     negative rho (up, down):  6.509E-02 0.000E+00

     total cpu time spent up to now is     2362.1 secs

     total energy              =   -9109.85651404 Ry
     estimated scf accuracy    <       0.00000253 Ry

     iteration # 11     ecut=    60.00 Ry     beta= 0.20
     Davidson diagonalization with overlap
     ethr =  1.15E-09,  avg # of iterations =  2.0

     negative rho (up, down):  6.508E-02 0.000E+00

     total cpu time spent up to now is     2399.6 secs

     total energy              =   -9109.85651457 Ry
     estimated scf accuracy    <       0.00000197 Ry

     iteration # 12     ecut=    60.00 Ry     beta= 0.20
     Davidson diagonalization with overlap
     ethr =  8.95E-10,  avg # of iterations =  1.2

     negative rho (up, down):  6.508E-02 0.000E+00

     total cpu time spent up to now is     2436.8 secs

     total energy              =   -9109.85651495 Ry
     estimated scf accuracy    <       0.00000043 Ry

     iteration # 13     ecut=    60.00 Ry     beta= 0.20
     Davidson diagonalization with overlap
     ethr =  1.95E-10,  avg # of iterations =  2.3

     negative rho (up, down):  6.507E-02 0.000E+00

     total cpu time spent up to now is     2474.6 secs

     total energy              =   -9109.85651502 Ry
     estimated scf accuracy    <       0.00000029 Ry

     iteration # 14     ecut=    60.00 Ry     beta= 0.20
     Davidson diagonalization with overlap
     ethr =  1.33E-10,  avg # of iterations =  1.6

     negative rho (up, down):  6.507E-02 0.000E+00

     total cpu time spent up to now is     2512.1 secs

     total energy              =   -9109.85651514 Ry
     estimated scf accuracy    <       0.00000029 Ry

     iteration # 15     ecut=    60.00 Ry     beta= 0.20
     Davidson diagonalization with overlap
     ethr =  1.32E-10,  avg # of iterations =  2.0

     negative rho (up, down):  6.507E-02 0.000E+00

     total cpu time spent up to now is     2549.4 secs

     total energy              =   -9109.85651516 Ry
     estimated scf accuracy    <       0.00000003 Ry

     iteration # 16     ecut=    60.00 Ry     beta= 0.20
     Davidson diagonalization with overlap
     ethr =  1.30E-11,  avg # of iterations =  5.0

     negative rho (up, down):  6.507E-02 0.000E+00

     total cpu time spent up to now is     2587.9 secs

     total energy              =   -9109.85651516 Ry
     estimated scf accuracy    <       0.00000004 Ry

     iteration # 17     ecut=    60.00 Ry     beta= 0.20
     Davidson diagonalization with overlap
     ethr =  1.30E-11,  avg # of iterations =  1.2

     negative rho (up, down):  6.507E-02 0.000E+00

     total cpu time spent up to now is     2625.4 secs

     total energy              =   -9109.85651516 Ry
     estimated scf accuracy    <       0.00000002 Ry

     iteration # 18     ecut=    60.00 Ry     beta= 0.20
     Davidson diagonalization with overlap
     ethr =  1.07E-11,  avg # of iterations =  1.0

     negative rho (up, down):  6.507E-02 0.000E+00

     total cpu time spent up to now is     2663.0 secs

     total energy              =   -9109.85651515 Ry
     estimated scf accuracy    <          9.5E-09 Ry

     iteration # 19     ecut=    60.00 Ry     beta= 0.20
     Davidson diagonalization with overlap
     ethr =  4.32E-12,  avg # of iterations =  2.2

     negative rho (up, down):  6.507E-02 0.000E+00

     total cpu time spent up to now is     2700.4 secs

     total energy              =   -9109.85651516 Ry
     estimated scf accuracy    <       0.00000001 Ry

     iteration # 20     ecut=    60.00 Ry     beta= 0.20
     Davidson diagonalization with overlap
     ethr =  4.32E-12,  avg # of iterations =  1.2

     negative rho (up, down):  6.508E-02 0.000E+00

     total cpu time spent up to now is     2737.5 secs

     End of self-consistent calculation

          k = 0.0000 0.0000 0.0000 ( 90505 PWs)   bands (ev):

  -103.5399-103.5398-103.5318-103.5317-103.1289-103.1289 -69.1675 -69.1675
   -69.1673 -69.1672 -64.1254 -64.1250 -64.1238 -64.1233 -63.9542 -63.9539
   -63.9051 -63.9048 -63.8025 -63.8023 -63.7755 -63.7753 -63.6236 -63.6235
   -63.5771 -63.5770 -63.4321 -63.4320 -35.6277 -35.6273 -35.6269 -35.6264
   -35.5942 -35.5941 -35.5941 -35.5939 -35.5464 -35.5430 -35.5427 -35.5393
   -12.9553 -12.6650 -12.5746 -12.1346 -12.0603 -11.9237 -11.8674 -11.8276
   -11.7091 -11.5418  -6.1970  -5.9486  -5.7467  -5.7255  -5.4668  -5.4063
    -5.3725  -4.7995  -4.6608  -4.2857  -4.1850  -3.9834  -3.9757  -3.8432
    -3.8276  -3.8272  -3.7398  -3.6677  -3.6276  -3.6247  -3.2498  -3.1795
    -3.0340  -3.0050  -2.9218  -2.8096  -2.7587  -2.7156  -2.5738  -2.4584
    -2.4364  -2.3788  -2.3366  -2.2363  -2.1735  -2.1254  -2.0737  -1.9901
    -1.9442  -1.9014  -1.8183  -1.7390  -1.7184  -1.6820  -1.5520  -1.5146
    -1.4951  -1.4811  -1.3766  -1.3004  -1.1746  -1.1050  -1.0644  -1.0080
    -0.9078  -0.7118  -0.6961  -0.6398  -0.4925  -0.4897  -0.2032  -0.1854
     0.1901   0.5028   0.6090   0.8071   0.9851   1.0197   1.0625   1.2677
     1.3086   1.3854   1.6250   1.7057   1.8963   2.2837   2.5925   2.6058
     2.6649   2.7117   2.8962   2.9214

          k = 0.0000 0.4547 0.0000 ( 90582 PWs)   bands (ev):

  -103.5397-103.5396-103.5320-103.5319-103.1289-103.1289 -69.1675 -69.1674
   -69.1672 -69.1672 -64.1252 -64.1251 -64.1237 -64.1236 -63.9533 -63.9533
   -63.9069 -63.9068 -63.8014 -63.8013 -63.7758 -63.7757 -63.6236 -63.6234
   -63.5771 -63.5770 -63.4324 -63.4322 -35.6275 -35.6271 -35.6267 -35.6262
   -35.5975 -35.5974 -35.5973 -35.5972 -35.5459 -35.5427 -35.5423 -35.5391
   -12.8785 -12.5902 -12.5100 -12.0989 -12.0078 -11.8949 -11.8266 -11.7918
   -11.6732 -11.5214  -6.1350  -5.8899  -5.6762  -5.6467  -5.4206  -5.3498
    -5.2920  -4.7408  -4.6219  -4.2700  -4.1864  -4.1003  -4.0342  -4.0136
    -3.9927  -3.8745  -3.7811  -3.7233  -3.5520  -3.4872  -3.3961  -3.2271
    -3.1133  -2.9919  -2.9698  -2.9517  -2.9019  -2.8749  -2.7787  -2.5542
    -2.5097  -2.4298  -2.4019  -2.3397  -2.2424  -2.1718  -2.1311  -2.0123
    -1.9691  -1.9439  -1.9134  -1.8761  -1.8031  -1.7147  -1.6318  -1.6178
    -1.5165  -1.5088  -1.3116  -1.2315  -1.2125  -1.1770  -1.1352  -0.9218
    -0.8761  -0.8353  -0.7686  -0.6788  -0.5264  -0.5027  -0.1299   0.0153
     0.2531   0.4116   0.6871   0.7836   0.8808   0.9588   1.1334   1.2372
     1.2632   1.3940   1.4885   1.6179   1.9889   2.1031   2.2555   2.2561
     2.4086   2.4561   2.9549   3.2008

          k = 0.0000 0.9095 0.0000 ( 90700 PWs)   bands (ev):

  -103.5392-103.5391-103.5325-103.5325-103.1289-103.1289 -69.1673 -69.1673
   -69.1671 -69.1670 -64.1252 -64.1251 -64.1239 -64.1238 -63.9508 -63.9507
   -63.9116 -63.9115 -63.7986 -63.7985 -63.7770 -63.7769 -63.6237 -63.6234
   -63.5771 -63.5770 -63.4327 -63.4326 -35.6273 -35.6269 -35.6265 -35.6261
   -35.6059 -35.6057 -35.6055 -35.6053 -35.5447 -35.5420 -35.5412 -35.5385
   -12.6598 -12.3785 -12.3309 -11.9981 -11.8732 -11.8245 -11.7070 -11.6903
   -11.5817 -11.4686  -5.9971  -5.7576  -5.5063  -5.4765  -5.3084  -5.2112
    -5.0944  -4.7835  -4.6274  -4.4038  -4.3340  -4.2828  -4.1927  -4.1823
    -4.1108  -4.0110  -3.9821  -3.8069  -3.7287  -3.7144  -3.4260  -3.4100
    -3.4086  -3.2496  -3.1726  -3.1066  -3.0833  -2.9289  -2.8118  -2.8091
    -2.6657  -2.6325  -2.5821  -2.4736  -2.3724  -2.2711  -2.1953  -2.1944
    -2.1473  -2.0372  -1.9561  -1.8723  -1.8231  -1.7715  -1.6888  -1.6780
    -1.6659  -1.5922  -1.5630  -1.2410  -1.2228  -1.1502  -1.1215  -1.1034
    -0.9976  -0.9875  -0.9041  -0.7249  -0.6730  -0.6028   0.1446   0.2528
     0.2958   0.6492   0.6510   0.7019   0.8650   0.9121   0.9429   1.0306
     1.3513   1.3666   1.4354   1.6806   1.7582   2.0264   2.0388   2.1153
     2.2648   2.3385   3.4122   3.5031

          k = 0.0000 1.3642 0.0000 ( 90828 PWs)   bands (ev):

  -103.5383-103.5383-103.5334-103.5333-103.1289-103.1289 -69.1671 -69.1670
   -69.1669 -69.1669 -64.1253 -64.1252 -64.1241 -64.1240 -63.9469 -63.9468
   -63.9181 -63.9181 -63.7947 -63.7946 -63.7790 -63.7789 -63.6237 -63.6234
   -63.5772 -63.5771 -63.4331 -63.4330 -35.6290 -35.6287 -35.6283 -35.6281
   -35.6141 -35.6140 -35.6134 -35.6133 -35.5430 -35.5410 -35.5398 -35.5378
   -12.3375 -12.0882 -12.0723 -11.8475 -11.7445 -11.7152 -11.5581 -11.5315
   -11.4859 -11.4064  -5.9630  -5.7574  -5.5777  -5.5683  -5.2173  -5.1645
    -5.1146  -4.9157  -4.8356  -4.6130  -4.5093  -4.5081  -4.2724  -4.2113
    -4.1995  -4.0773  -4.0262  -3.9509  -3.8133  -3.7153  -3.6019  -3.5976
    -3.4595  -3.3566  -3.2527  -3.2282  -3.2065  -3.0395  -2.9408  -2.8135
    -2.7809  -2.7664  -2.6606  -2.6122  -2.4574  -2.3191  -2.2911  -2.2822
    -2.2518  -2.1512  -2.0756  -2.0464  -1.9257  -1.8316  -1.7976  -1.7131
    -1.6920  -1.6340  -1.6176  -1.4921  -1.3073  -1.2786  -1.2681  -1.2179
    -1.1103  -1.0908  -0.9864  -0.8570  -0.8038  -0.7868   0.1167   0.2311
     0.4187   0.6749   0.7870   0.8255   0.9551   0.9833   0.9964   1.0466
     1.2991   1.4653   1.4814   1.7885   1.8368   1.9783   2.1810   2.2814
     2.4047   2.4727   3.0998   3.1818

          k = 0.0000 1.8189 0.0000 ( 90908 PWs)   bands (ev):

  -103.5374-103.5373-103.5343-103.5343-103.1289-103.1289 -69.1669 -69.1669
   -69.1668 -69.1667 -64.1253 -64.1253 -64.1244 -64.1242 -63.9416 -63.9415
   -63.9251 -63.9250 -63.7906 -63.7906 -63.7816 -63.7814 -63.6237 -63.6235
   -63.5772 -63.5771 -63.4332 -63.4331 -35.6338 -35.6336 -35.6333 -35.6331
   -35.6173 -35.6172 -35.6164 -35.6163 -35.5415 -35.5405 -35.5385 -35.5374
   -11.9910 -11.8812 -11.7575 -11.6829 -11.6624 -11.5894 -11.4681 -11.4659
   -11.3837 -11.3624  -6.1412  -6.0781  -6.0256  -6.0220  -5.3429  -5.2424
    -5.1229  -5.0659  -4.8648  -4.7729  -4.4609  -4.3889  -4.3519  -4.0985
    -4.0468  -3.9621  -3.8449  -3.7842  -3.7696  -3.7443  -3.5731  -3.5406
    -3.5150  -3.4709  -3.4095  -3.3916  -3.1666  -3.1608  -3.0472  -3.0068
[...]
     1.3515   1.3797   1.4711   1.7337   1.7985   2.0772   2.0968   2.1833
     2.3217   2.4398   3.4784   3.5769

          k = 0.0000 1.3642 0.0000 ( 90828 PWs)   bands (ev):

  -103.5995-103.5995-103.5942-103.5942-103.1432-103.1431 -69.1411 -69.1411
   -69.1410 -69.1409 -64.1860 -64.1859 -64.1851 -64.1849 -64.0224 -64.0223
   -63.9912 -63.9911 -63.8478 -63.8478 -63.8319 -63.8319 -63.6252 -63.6249
   -63.5783 -63.5783 -63.4761 -63.4761 -35.6076 -35.6075 -35.6069 -35.6068
   -35.6056 -35.6055 -35.6049 -35.6049 -35.5338 -35.5316 -35.5309 -35.5286
   -12.4327 -12.1963 -12.1433 -11.9061 -11.8022 -11.7984 -11.6368 -11.5946
   -11.5631 -11.4714  -6.0459  -5.8507  -5.7027  -5.6947  -5.3186  -5.2813
    -5.2079  -5.0234  -4.9281  -4.7205  -4.5739  -4.5724  -4.3196  -4.2983
    -4.2800  -4.1684  -4.0805  -3.9892  -3.8665  -3.7800  -3.7116  -3.6769
    -3.5517  -3.4010  -3.3063  -3.3042  -3.2288  -3.0576  -3.0451  -2.9015
    -2.8340  -2.8328  -2.7606  -2.6696  -2.5386  -2.3845  -2.3683  -2.3623
    -2.3194  -2.1877  -2.1706  -2.0785  -2.0039  -1.8716  -1.8462  -1.7664
    -1.7478  -1.6809  -1.6593  -1.5055  -1.3286  -1.2758  -1.2661  -1.2376
    -1.1484  -1.0854  -0.9908  -0.8899  -0.7980  -0.7860   0.1208   0.2267
     0.4350   0.6845   0.8312   0.8857   0.9875   1.0163   1.0185   1.0417
     1.3144   1.4595   1.5412   1.8430   1.8673   1.9985   2.2653   2.3755
     2.4895   2.5200   3.1832   3.2688

          k = 0.0000 1.8189 0.0000 ( 90908 PWs)   bands (ev):

  -103.5982-103.5982-103.5954-103.5954-103.1432-103.1431 -69.1409 -69.1409
   -69.1408 -69.1408 -64.1860 -64.1860 -64.1854 -64.1853 -64.0158 -64.0157
   -63.9995 -63.9994 -63.8432 -63.8432 -63.8351 -63.8348 -63.6252 -63.6250
   -63.5784 -63.5783 -63.4763 -63.4763 -35.6160 -35.6159 -35.6155 -35.6154
   -35.6057 -35.6056 -35.6046 -35.6045 -35.5321 -35.5310 -35.5293 -35.5282
   -12.0632 -11.9183 -11.8739 -11.7535 -11.7397 -11.6863 -11.5503 -11.5429
   -11.4453 -11.4260  -6.2558  -6.2024  -6.1623  -6.1514  -5.4293  -5.3518
    -5.2233  -5.2005  -4.9293  -4.8749  -4.5113  -4.4330  -4.4209  -4.1408
    -4.0533  -4.0482  -3.9121  -3.8040  -3.7936  -3.7928  -3.6645  -3.5659
    -3.5632  -3.5490  -3.4518  -3.4064  -3.2627  -3.2454  -3.1104  -3.0919
    -2.8590  -2.8103  -2.8101  -2.7003  -2.5518  -2.4856  -2.4627  -2.4528
    -2.2999  -2.2802  -2.2119  -2.1820  -2.1545  -2.0177  -2.0065  -1.8725
    -1.7119  -1.6762  -1.6486  -1.6484  -1.4512  -1.4493  -1.4056  -1.3661
    -1.2354  -1.2211  -1.1940  -0.9619  -0.9226  -0.8964   0.0085   0.0820
     0.5730   0.8198   0.8452   0.9093   0.9731   1.1290   1.2184   1.2778
     1.3739   1.4662   1.5649   1.7523   1.8068   2.1881   2.2206   2.5111
     2.7891   2.8676   2.9433   2.9452

          k = 0.0000-2.2737 0.0000 ( 90858 PWs)   bands (ev):

  -103.5969-103.5969-103.5968-103.5968-103.1432-103.1431 -69.1408 -69.1408
   -69.1408 -69.1408 -64.1859 -64.1857 -64.1856 -64.1853 -64.0087 -64.0085
   -64.0074 -64.0072 -63.8390 -63.8389 -63.8386 -63.8385 -63.6250 -63.6250
   -63.5783 -63.5783 -63.4764 -63.4763 -35.6196 -35.6196 -35.6191 -35.6191
   -35.6052 -35.6052 -35.6041 -35.6041 -35.5312 -35.5311 -35.5284 -35.5283
   -11.8329 -11.8318 -11.7007 -11.6976 -11.6822 -11.6796 -11.5675 -11.5654
   -11.4041 -11.4040  -6.3771  -6.3693  -6.3664  -6.3654  -5.5379  -5.5324
    -5.1538  -5.1474  -5.0256  -5.0219  -4.3100  -4.3090  -4.1875  -4.1789
    -4.0436  -4.0402  -3.7208  -3.7164  -3.7031  -3.6964  -3.6247  -3.6198
    -3.5966  -3.5954  -3.4622  -3.4534  -3.2909  -3.2864  -3.2558  -3.2543
    -2.7790  -2.7783  -2.7577  -2.7569  -2.5397  -2.5355  -2.5071  -2.5005
    -2.3578  -2.3516  -2.1606  -2.1580  -2.1236  -2.1209  -2.0107  -2.0002
    -1.7252  -1.7229  -1.5940  -1.5917  -1.5156  -1.5069  -1.4740  -1.4736
    -1.3702  -1.3660  -1.1278  -1.1272  -0.8981  -0.8954   0.0085   0.0095
     0.6520   0.6614   0.9654   0.9670   1.0655   1.0667   1.1578   1.1617
     1.4606   1.4617   1.7271   1.7390   1.9629   1.9715   2.3093   2.3126
     2.8087   2.8202   3.0558   3.0570

          k =-0.5000 0.0000 0.0000 ( 90550 PWs)   bands (ev):

  -103.6013-103.6013-103.5923-103.5923-103.1432-103.1431 -69.1416 -69.1416
   -69.1413 -69.1413 -64.1860 -64.1860 -64.1845 -64.1845 -64.0313 -64.0313
   -63.9762 -63.9762 -63.8562 -63.8562 -63.8280 -63.8280 -63.6252 -63.6251
   -63.5783 -63.5782 -63.4751 -63.4750 -35.6102 -35.6102 -35.6091 -35.6091
   -35.5810 -35.5810 -35.5808 -35.5808 -35.5366 -35.5366 -35.5314 -35.5314
   -12.9852 -12.9851 -12.3728 -12.3728 -12.1178 -12.1177 -11.8494 -11.8494
   -11.6853 -11.6853  -6.1522  -6.1521  -5.8339  -5.8339  -5.4600  -5.4600
    -5.1444  -5.1444  -4.7108  -4.7107  -4.1354  -4.1354  -3.9750  -3.9750
    -3.8608  -3.8608  -3.7883  -3.7883  -3.6853  -3.6852  -3.4014  -3.4013
    -3.2733  -3.2732  -2.8562  -2.8562  -2.8307  -2.8307  -2.6379  -2.6378
    -2.4443  -2.4443  -2.3501  -2.3500  -2.1797  -2.1797  -2.0546  -2.0546
    -1.9062  -1.9062  -1.8459  -1.8458  -1.7397  -1.7397  -1.6382  -1.6381
    -1.5209  -1.5209  -1.2859  -1.2858  -1.1479  -1.1478  -1.0671  -1.0671
    -0.8036  -0.8036  -0.6329  -0.6329  -0.5511  -0.5510  -0.1755  -0.1755
     0.3182   0.3182   0.7761   0.7761   1.0281   1.0281   1.2287   1.2288
     1.2879   1.2879   1.7146   1.7146   2.1272   2.1272   2.7212   2.7213
     2.8751   2.8751   2.9813   2.9813

          k =-0.5000 0.4547 0.0000 ( 90656 PWs)   bands (ev):

  -103.6011-103.6011-103.5925-103.5925-103.1432-103.1431 -69.1415 -69.1415
   -69.1412 -69.1412 -64.1860 -64.1860 -64.1845 -64.1845 -64.0302 -64.0302
   -63.9785 -63.9785 -63.8551 -63.8551 -63.8285 -63.8285 -63.6251 -63.6251
   -63.5783 -63.5783 -63.4754 -63.4753 -35.6097 -35.6097 -35.6086 -35.6086
   -35.5847 -35.5847 -35.5845 -35.5845 -35.5361 -35.5361 -35.5311 -35.5311
   -12.9076 -12.9076 -12.3100 -12.3100 -12.0863 -12.0862 -11.8131 -11.8131
   -11.6602 -11.6602  -6.0905  -6.0905  -5.7611  -5.7611  -5.3999  -5.3999
    -5.1053  -5.1053  -4.6754  -4.6754  -4.2181  -4.2181  -4.1535  -4.1535
    -3.8709  -3.8709  -3.7759  -3.7759  -3.6755  -3.6754  -3.4099  -3.4099
    -3.3221  -3.3220  -2.9932  -2.9931  -2.9440  -2.9440  -2.8001  -2.8000
    -2.5099  -2.5099  -2.4311  -2.4310  -2.2940  -2.2940  -2.0750  -2.0750
    -1.9877  -1.9877  -1.9159  -1.9159  -1.7919  -1.7919  -1.6720  -1.6720
    -1.5537  -1.5537  -1.2928  -1.2927  -1.1333  -1.1333  -0.9999  -0.9998
    -0.9418  -0.9418  -0.7845  -0.7845  -0.4466  -0.4465  -0.0740  -0.0740
     0.3651   0.3651   0.8141   0.8141   0.9673   0.9674   1.1353   1.1353
     1.3249   1.3250   1.6425   1.6425   2.0418   2.0418   2.3607   2.3607
     2.4854   2.4854   3.1691   3.1691

          k =-0.5000 0.9095 0.0000 ( 90782 PWs)   bands (ev):

  -103.6005-103.6005-103.5932-103.5932-103.1432-103.1431 -69.1413 -69.1413
   -69.1411 -69.1411 -64.1860 -64.1860 -64.1847 -64.1847 -64.0273 -64.0273
   -63.9838 -63.9838 -63.8521 -63.8521 -63.8298 -63.8298 -63.6251 -63.6250
   -63.5784 -63.5783 -63.4758 -63.4757 -35.6085 -35.6085 -35.6074 -35.6074
   -35.5943 -35.5943 -35.5940 -35.5940 -35.5348 -35.5348 -35.5303 -35.5303
   -12.6869 -12.6869 -12.1381 -12.1380 -11.9995 -11.9995 -11.7212 -11.7212
   -11.5906 -11.5906  -5.9552  -5.9551  -5.5791  -5.5791  -5.2796  -5.2795
    -5.1210  -5.1210  -4.6579  -4.6579  -4.3898  -4.3898  -4.3598  -4.3598
    -4.0187  -4.0186  -3.8929  -3.8929  -3.7832  -3.7831  -3.5832  -3.5832
    -3.4595  -3.4595  -3.2166  -3.2165  -3.0508  -3.0507  -2.9471  -2.9471
    -2.7219  -2.7218  -2.6037  -2.6037  -2.3488  -2.3488  -2.2587  -2.2587
    -2.1506  -2.1506  -1.9641  -1.9640  -1.8130  -1.8130  -1.7236  -1.7235
    -1.6357  -1.6357  -1.4686  -1.4686  -1.2568  -1.2567  -1.0810  -1.0810
    -1.0258  -1.0258  -0.7341  -0.7340  -0.6117  -0.6117   0.1537   0.1537
     0.4705   0.4705   0.7245   0.7245   0.9836   0.9837   1.1621   1.1621
     1.1911   1.1911   1.5563   1.5563   1.9708   1.9708   2.1875   2.1875
     2.2995   2.2996   3.5548   3.5548

          k =-0.5000 1.3642 0.0000 ( 90794 PWs)   bands (ev):

  -103.5995-103.5995-103.5942-103.5942-103.1432-103.1431 -69.1411 -69.1411
   -69.1409 -69.1409 -64.1859 -64.1859 -64.1850 -64.1850 -64.0223 -64.0223
   -63.9911 -63.9911 -63.8478 -63.8478 -63.8319 -63.8319 -63.6250 -63.6250
   -63.5783 -63.5783 -63.4761 -63.4760 -35.6076 -35.6076 -35.6069 -35.6069
   -35.6056 -35.6056 -35.6049 -35.6049 -35.5331 -35.5331 -35.5293 -35.5293
   -12.3627 -12.3627 -11.9231 -11.9231 -11.8684 -11.8684 -11.6192 -11.6192
   -11.4991 -11.4991  -5.9730  -5.9729  -5.5981  -5.5981  -5.4039  -5.4039
    -5.1891  -5.1891  -4.7214  -4.7214  -4.6107  -4.6106  -4.2527  -4.2527
    -4.1341  -4.1340  -4.1168  -4.1168  -3.8468  -3.8467  -3.7098  -3.7098
    -3.4067  -3.4067  -3.3171  -3.3171  -3.1323  -3.1323  -3.0559  -3.0559
    -2.8236  -2.8236  -2.7350  -2.7350  -2.4695  -2.4695  -2.3362  -2.3362
    -2.2934  -2.2934  -2.1280  -2.1280  -1.8871  -1.8871  -1.8072  -1.8071
    -1.6831  -1.6831  -1.6200  -1.6200  -1.3384  -1.3384  -1.2415  -1.2414
    -1.0570  -1.0570  -0.9772  -0.9772  -0.7878  -0.7878   0.1509   0.1510
     0.6746   0.6746   0.8584   0.8584   0.9450   0.9450   1.0756   1.0756
     1.3418   1.3419   1.5866   1.5866   2.1478   2.1478   2.2226   2.2226
     2.3955   2.3955   3.2884   3.2885

          k =-0.5000 1.8189 0.0000 ( 90830 PWs)   bands (ev):

  -103.5982-103.5982-103.5954-103.5954-103.1432-103.1431 -69.1409 -69.1409
   -69.1408 -69.1408 -64.1859 -64.1859 -64.1854 -64.1854 -64.0158 -64.0158
   -63.9995 -63.9995 -63.8431 -63.8431 -63.8348 -63.8348 -63.6250 -63.6250
   -63.5782 -63.5782 -63.4763 -63.4763 -35.6159 -35.6159 -35.6155 -35.6155
   -35.6056 -35.6056 -35.6045 -35.6045 -35.5317 -35.5317 -35.5286 -35.5286
   -12.0153 -12.0153 -11.7960 -11.7960 -11.6978 -11.6978 -11.5594 -11.5594
   -11.4312 -11.4312  -6.3044  -6.3043  -6.0406  -6.0406  -5.4588  -5.4588
    -5.2116  -5.2116  -4.8910  -4.8910  -4.4903  -4.4903  -4.2747  -4.2746
    -4.0338  -4.0338  -3.8994  -3.8993  -3.7416  -3.7416  -3.6836  -3.6836
    -3.4924  -3.4924  -3.3651  -3.3651  -3.2140  -3.2140  -3.1256  -3.1256
    -2.9151  -2.9151  -2.7127  -2.7127  -2.6109  -2.6109  -2.4431  -2.4431
    -2.3041  -2.3040  -2.2054  -2.2054  -2.0385  -2.0384  -1.9055  -1.9055
    -1.7139  -1.7139  -1.6426  -1.6426  -1.4814  -1.4814  -1.3277  -1.3277
    -1.2713  -1.2713  -1.1090  -1.1090  -0.8844  -0.8843   0.0466   0.0466
     0.6977   0.6978   0.9737   0.9737   1.0984   1.0984   1.1744   1.1744
     1.3742   1.3742   1.6266   1.6266   1.9459   1.9459   2.5189   2.5189
     2.6190   2.6190   2.9672   2.9672

          k =-0.5000-2.2737 0.0000 ( 90888 PWs)   bands (ev):

  -103.5969-103.5969-103.5968-103.5968-103.1432-103.1431 -69.1408 -69.1408
   -69.1408 -69.1408 -64.1858 -64.1858 -64.1854 -64.1854 -64.0087 -64.0087
   -64.0074 -64.0074 -63.8389 -63.8389 -63.8385 -63.8385 -63.6250 -63.6250
   -63.5783 -63.5782 -63.4765 -63.4764 -35.6196 -35.6196 -35.6191 -35.6191
   -35.6052 -35.6052 -35.6041 -35.6041 -35.5311 -35.5311 -35.5284 -35.5284
   -11.8319 -11.8318 -11.6977 -11.6976 -11.6835 -11.6835 -11.5665 -11.5665
   -11.4034 -11.4034  -6.4871  -6.4870  -6.2171  -6.2171  -5.5717  -5.5717
    -5.1366  -5.1366  -5.0533  -5.0533  -4.2727  -4.2727  -4.2535  -4.2534
    -3.9792  -3.9792  -3.7570  -3.7570  -3.7069  -3.7069  -3.6348  -3.6348
    -3.5974  -3.5973  -3.5032  -3.5031  -3.1429  -3.1429  -3.0893  -3.0893
    -3.0055  -3.0055  -2.7188  -2.7188  -2.6148  -2.6148  -2.5075  -2.5075
    -2.3686  -2.3686  -2.1139  -2.1139  -2.0889  -2.0889  -1.9950  -1.9950
    -1.7458  -1.7458  -1.5989  -1.5988  -1.5391  -1.5391  -1.4272  -1.4271
    -1.3834  -1.3833  -1.1421  -1.1421  -0.8975  -0.8975   0.0145   0.0146
     0.6819   0.6819   0.9904   0.9905   1.0282   1.0282   1.2011   1.2011
     1.4585   1.4585   1.7772   1.7773   1.8047   1.8048   2.5455   2.5455
     2.5519   2.5520   3.1473   3.1473

     the Fermi energy is    -0.3194 ev

!    total energy              =   -9109.87393842 Ry
     total all-electron energy =     -9109.873938 Ry
     estimated scf accuracy    <          6.7E-12 Ry
     smearing contrib. (-TS)   =      -0.00000000 Ry
     internal energy E=F+TS    =   -9109.87393842 Ry

     The total energy is F=E-TS. E is the sum of the following terms:
     one-electron contribution =  -15752.91304684 Ry
     hartree contribution      =    7732.76175961 Ry
     xc contribution           =    -364.59982267 Ry
     ewald contribution        =    5542.52816879 Ry
     one-center paw contrib.   =   -6267.65099731 Ry

     convergence has been achieved in  18 iterations

     negative rho (up, down):  6.560E-02 0.000E+00

     Forces acting on atoms (cartesian axes, Ry/au):

     atom    1 type  1   force =    -0.00001263   -0.00048514    0.00055871
     atom    2 type  1   force =    -0.00001874    0.00049010   -0.00055554
     atom    3 type  1   force =     0.00000654   -0.00048378    0.00056107
     atom    4 type  1   force =     0.00001335    0.00048960   -0.00055859
     atom    5 type  2   force =    -0.00044825    0.00010167   -0.00001702
     atom    6 type  2   force =    -0.00044778   -0.00010182    0.00001663
     atom    7 type  2   force =     0.00045152    0.00009807   -0.00001916
     atom    8 type  2   force =     0.00045238   -0.00009942    0.00001835
     atom    9 type  2   force =     0.00000164    0.00037086    0.00015710
     atom   10 type  2   force =     0.00000137   -0.00037407   -0.00015488
     atom   11 type  3   force =    -0.00001359   -0.00034925    0.00061159
     atom   12 type  3   force =    -0.00001654    0.00035073   -0.00061343
     atom   13 type  3   force =    -0.00018327    0.00053716    0.00034775
     atom   14 type  3   force =    -0.00018684   -0.00054161   -0.00034550
     atom   15 type  3   force =     0.00001623   -0.00034808    0.00060558
     atom   16 type  3   force =     0.00001947    0.00034972   -0.00060871
     atom   17 type  3   force =     0.00018554    0.00053869    0.00035162
     atom   18 type  3   force =     0.00018834   -0.00054189   -0.00035100
     atom   19 type  3   force =    -0.00000374    0.00073936    0.00057248
     atom   20 type  3   force =    -0.00000501   -0.00074088   -0.00057705

     Total force =     0.002983     Total SCF correction =     0.000016


     Computing stress (Cartesian axis) and pressure


     negative rho (up, down):  6.560E-02 0.000E+00
          total   stress  (Ry/bohr**3)                   (kbar)     P=       -8.19
  -0.00002420   0.00000000  -0.00000000           -3.56        0.00       -0.00
   0.00000000  -0.00010465  -0.00000073            0.00      -15.39       -0.11
  -0.00000000  -0.00000073  -0.00003817           -0.00       -0.11       -5.61

     Energy error            =      1.9E-05 Ry
     Gradient error          =      7.4E-04 Ry/Bohr

     bfgs converged in  24 scf cycles and  23 bfgs steps
     (criteria: energy <  1.0E-04 Ry, force <  1.0E-03 Ry/Bohr)

     End of BFGS Geometry Optimization

     Final energy             =   -9109.8739384150 Ry

     File /ddn/data/physics/eamoujaes/2D-Ta2Ni3Te5/ELASTIC/C22/OUT/ta2ni3te5.bfgs deleted, as requested
Begin final coordinates

ATOMIC_POSITIONS (angstrom)
Ta              15.3653762206        0.8664975849       12.5275909053
Ta               6.5451816115        2.7931159205       12.5082210144
Ta               2.2915409668        0.8665217930       12.5275529384
Ta              11.1117363239        2.7930975629       12.5082598886
Ni              12.8878695337        0.8611035551       11.7835606663
Ni               4.0676654203        2.7986543692       13.2522515550
Ni               4.7690971446        0.8611424302       11.7835136838
Ni              13.5892961311        2.7986140624       13.2523042663
Ni               8.8284328061        0.8590066166       12.3444691252
Ni               0.0081904498        2.8009369536       12.6913833898
Te              14.2197243780        2.8041916591       10.6323871396
Te               5.3995280803        0.8554440013       14.4034312867
Te              10.6157192397        0.8504273575       10.5193338210
Te               1.7955152644        2.8091471236       14.5164770992
Te               3.4371335349        2.8042161063       10.6323849446
Te              12.2573287267        0.8554205445       14.4034373908
Te               7.0411817120        0.8504343500       10.5192742170
Te              15.8613921371        2.8091273191       14.5165359290
Te               0.0081991795        0.8580625468       10.9614553590
Te               8.8284535023        2.8017705975       14.0744263796
End final coordinates



     Writing all to output data dir /ddn/data/physics/eamoujaes/2D-Ta2Ni3Te5/ELASTIC/C22/OUT/ta2ni3te5.save/ :
     XML data file, charge density, pseudopotentials, collected wavefunctions
 
     init_run     :     52.28s CPU     63.86s WALL (       1 calls)
     electrons    :  13382.53s CPU  17380.06s WALL (      24 calls)
     update_pot   :    625.73s CPU    800.76s WALL (      23 calls)
     forces       :     44.24s CPU     54.89s WALL (      24 calls)
     stress       :     78.51s CPU    121.67s WALL (      24 calls)

     Called by init_run:
     wfcinit      :      6.03s CPU      7.80s WALL (       1 calls)
     potinit      :     41.79s CPU     50.35s WALL (       1 calls)
     hinit0       :      2.58s CPU      3.02s WALL (       1 calls)

     Called by electrons:
     c_bands      :   1010.44s CPU   1482.40s WALL (     462 calls)
     sum_band     :    344.83s CPU    458.12s WALL (     462 calls)
     v_of_rho     :    162.68s CPU    217.65s WALL (     472 calls)
     newd         :     36.13s CPU     58.06s WALL (     472 calls)
                                       58.06s GPU  (     472 calls)
     PAW_pot      :  12924.60s CPU  16558.83s WALL (     495 calls)
     mix_rho      :     50.81s CPU     91.76s WALL (     462 calls)

     Called by c_bands:
     init_us_2    :     96.37s CPU    122.19s WALL (   11952 calls)
     init_us_2:cp :     82.13s CPU    103.40s WALL (     276 calls)
     init_us_2:gp :     13.93s CPU     18.46s WALL (   11676 calls)
     cegterg      :    583.15s CPU    989.20s WALL (    5544 calls)

     Called by *egterg:
     cdiaghg      :     49.10s CPU     78.91s WALL (   19083 calls)
                                       78.80s GPU  (   19083 calls)
     h_psi        :    426.96s CPU    732.82s WALL (   19539 calls)
                                      731.20s GPU  (   19539 calls)
     s_psi        :      9.00s CPU     12.37s WALL (   19539 calls)
     g_psi        :      0.05s CPU      6.21s WALL (   13983 calls)
                                        6.11s GPU  (   13983 calls)

     Called by h_psi:
     h_psi:calbec :      0.66s CPU     27.50s WALL (   19539 calls)
                                       27.27s GPU  (   19539 calls)
     vloc_psi     :    385.19s CPU    665.02s WALL (   19539 calls)
                                      664.91s GPU  (   19539 calls)
     add_vuspsi   :      6.72s CPU     33.52s WALL (   19539 calls)
                                       33.35s GPU  (   19539 calls)

     General routines
     calbec       :    246.26s CPU    420.87s WALL (   26799 calls)
     fft          :     45.95s CPU     48.65s WALL (    6725 calls)
                                        2.63s GPU  (    6253 calls)
     ffts         :     14.12s CPU     14.24s WALL (     934 calls)
                                        0.07s GPU  (     462 calls)
     fftw         :      2.05s CPU    589.72s WALL (  287324 calls)
                                      585.96s GPU  (  287324 calls)
     interpolate  :     68.46s CPU     72.53s WALL (     472 calls)
 
     Parallel routines
 
     PWSCF        :      4h12m CPU      5h29m WALL

 
   This run was terminated on:  23:33:10  28Jul2024            

=------------------------------------------------------------------------------=
   JOB DONE.
=------------------------------------------------------------------------------=
