
     Program PWSCF v.7.3 starts on 28Jul2024 at 23:33:24 

     This program is part of the open-source Quantum ESPRESSO suite
     for quantum simulation of materials; please cite
         "P. Giannozzi et al., J. Phys.:Condens. Matter 21 395502 (2009);
         "P. Giannozzi et al., J. Phys.:Condens. Matter 29 465901 (2017);
         "P. Giannozzi et al., J. Chem. Phys. 152 154105 (2020);
          URL http://www.quantum-espresso.org", 
     in publications or presentations arising from this work. More details at
     http://www.quantum-espresso.org/quote

     Parallel version (MPI & OpenMP), running on      32 processor cores
     Number of MPI processes:                 1
     Threads/MPI process:                    32

     MPI processes distributed on     1 nodes
     206656 MiB available memory on the printing compute node when the environment starts
 
     Waiting for input...
     Reading input from standard input
Warning: card &CELL ignored
Warning: card CELL_DYNAMICS='BFGS' ignored
Warning: card PRESS=0.0 ignored
Warning: card CELL_DOFREE='2DXY' ignored
Warning: card / ignored

     Current dimensions of program PWSCF are:
     Max number of different atomic species (ntypx) = 10
     Max number of k-points (npk) =  40000
     Max angular momentum in pseudopotentials (lmaxx) =  4
read_pp_mesh; mismatch in mesh size, discarding the one in header
read_pp_mesh; mismatch in mesh size, discarding the one in header
read_pp_mesh; mismatch in mesh size, discarding the one in header
 
     Subspace diagonalization in iterative solution of the eigenvalue problem:
     a serial algorithm will be used

 
     G-vector sticks info
     --------------------
     sticks:   dense  smooth     PW     G-vecs:    dense   smooth      PW
     Sum        9517    4773   1329              2091309   739701  108855
 
     Using Slab Decomposition
 


     bravais-lattice index     =            0
     lattice parameter (alat)  =      33.3357  a.u.
     unit-cell volume          =   11779.7852 (a.u.)^3
     number of atoms/cell      =           20
     number of atomic types    =            3
     number of electrons       =       220.00
     number of Kohn-Sham states=          132
     kinetic-energy cutoff     =      60.0000  Ry
     charge density cutoff     =     480.0000  Ry
     scf convergence threshold =      1.0E-08
     mixing beta               =       0.2000
     number of iterations used =            8  plain     mixing
     energy convergence thresh.=      1.0E-04
     force convergence thresh. =      1.0E-03
     Exchange-correlation= SLA PW PBX PBC
                           (   1   4   3   4   0   0   0)
     nstep                     =         2000


     GPU acceleration is ACTIVE.  1 visible GPUs per MPI rank
     GPU-aware MPI enabled


     celldm(1)=  33.335714  celldm(2)=   0.000000  celldm(3)=   0.000000
     celldm(4)=   0.000000  celldm(5)=   0.000000  celldm(6)=   0.000000

     crystal axes: (cart. coord. in units of alat)
               a(1) = (   1.000000   0.000000   0.000000 )  
               a(2) = (   0.000000   0.224058   0.000000 )  
               a(3) = (   0.000000   0.000000   1.419211 )  

     reciprocal axes: (cart. coord. in units 2 pi/alat)
               b(1) = (  1.000000  0.000000  0.000000 )  
               b(2) = (  0.000000  4.463125  0.000000 )  
               b(3) = (  0.000000  0.000000  0.704617 )  


     PseudoPot. # 1 for Ta read from file:
     /ddn/data/physics/eamoujaes/PSEUDO-CREATED/Ta.upf
     MD5 check sum: d865b2c2c09566b116f2b8decb2c153d
     Pseudo is Projector augmented-wave + core cor, Zval = 13.0
     Generated using ATOMPAW code
     Shape of augmentation charge: SINC**2
     Using radial grid of 2342 points,  6 beta functions with: 
                l(1) =   0
                l(2) =   0
                l(3) =   1
                l(4) =   1
                l(5) =   2
                l(6) =   2
     Q(r) pseudized with 0 coefficients 


     PseudoPot. # 2 for Ni read from file:
     /ddn/data/physics/eamoujaes/PSEUDO-CREATED/Ni.upf
     MD5 check sum: 85a2a5d9d38f4289a1cc30d5adb66a03
     Pseudo is Projector augmented-wave + core cor, Zval = 18.0
     Generated using ATOMPAW code
     Shape of augmentation charge: SINC**2
     Using radial grid of 2342 points,  6 beta functions with: 
                l(1) =   0
                l(2) =   0
                l(3) =   1
                l(4) =   1
                l(5) =   2
                l(6) =   2
     Q(r) pseudized with 0 coefficients 


     PseudoPot. # 3 for Te read from file:
     /ddn/data/physics/eamoujaes/PSEUDO-CREATED/Te.upf
     MD5 check sum: 8d958f193a7511a138982c2e72838810
     Pseudo is Projector augmented-wave + core cor, Zval =  6.0
     Generated using ATOMPAW code
     Shape of augmentation charge: SINC**2
     Using radial grid of 2342 points,  4 beta functions with: 
                l(1) =   0
                l(2) =   0
                l(3) =   1
                l(4) =   1
     Q(r) pseudized with 0 coefficients 


     atomic species   valence    mass     pseudopotential
     Ta               13.00   180.94790     Ta( 1.00)
     Ni               18.00    58.69340     Ni( 1.00)
     Te                6.00   127.60000     Te( 1.00)

     No symmetry found



   Cartesian axes

     site n.     atom                  positions (alat units)
         1        Ta     tau(   1) = (   0.8725286   0.0518649   0.7054131  )
         2        Ta     tau(   2) = (   0.3725263   0.1555948   0.7138118  )
         3        Ta     tau(   3) = (   0.1284065   0.0518649   0.7054032  )
         4        Ta     tau(   4) = (   0.6284092   0.1555948   0.7138208  )
         5        Ni     tau(   5) = (   0.7292542   0.0518649   0.6667436  )
         6        Ni     tau(   6) = (   0.2292509   0.1555948   0.7524812  )
         7        Ni     tau(   7) = (   0.2716741   0.0518649   0.6667284  )
         8        Ni     tau(   8) = (   0.7716766   0.1555948   0.7524957  )
         9        Ni     tau(   9) = (   0.5004590   0.0518649   0.7011256  )
        10        Ni     tau(  10) = (   0.0004579   0.1555948   0.7180981  )
        11        Te     tau(  11) = (   0.8057052   0.1555948   0.5972198  )
        12        Te     tau(  12) = (   0.3057012   0.0518649   0.8220046  )
        13        Te     tau(  13) = (   0.6006311   0.0518649   0.5963172  )
        14        Te     tau(  14) = (   0.1006292   0.1555948   0.8229072  )
        15        Te     tau(  15) = (   0.1952149   0.1555948   0.5972072  )
        16        Te     tau(  16) = (   0.6952178   0.0518649   0.8220171  )
        17        Te     tau(  17) = (   0.4003072   0.0518649   0.5963080  )
        18        Te     tau(  18) = (   0.9003091   0.1555948   0.8229170  )
        19        Te     tau(  19) = (   0.0004704   0.0518649   0.6143601  )
        20        Te     tau(  20) = (   0.5004710   0.1555948   0.8048626  )

     number of k points=    12  Gaussian smearing, width (Ry)=  0.0020
                       cart. coord. in units 2pi/alat
        k(    1) = (   0.0000000   0.0000000   0.0000000), wk =   0.1000000
        k(    2) = (   0.0000000   0.4463125   0.0000000), wk =   0.2000000
        k(    3) = (   0.0000000   0.8926249   0.0000000), wk =   0.2000000
        k(    4) = (   0.0000000   1.3389374   0.0000000), wk =   0.2000000
        k(    5) = (   0.0000000   1.7852498   0.0000000), wk =   0.2000000
        k(    6) = (   0.0000000  -2.2315623   0.0000000), wk =   0.1000000
        k(    7) = (  -0.5000000   0.0000000   0.0000000), wk =   0.1000000
        k(    8) = (  -0.5000000   0.4463125   0.0000000), wk =   0.2000000
        k(    9) = (  -0.5000000   0.8926249   0.0000000), wk =   0.2000000
        k(   10) = (  -0.5000000   1.3389374   0.0000000), wk =   0.2000000
        k(   11) = (  -0.5000000   1.7852498   0.0000000), wk =   0.2000000
        k(   12) = (  -0.5000000  -2.2315623   0.0000000), wk =   0.1000000

     Dense  grid:  2091309 G-vectors     FFT dimensions: ( 240,  54, 360)

     Smooth grid:   739701 G-vectors     FFT dimensions: ( 180,  40, 240)

     Estimated max dynamical RAM per process >      10.69 GB

     Initial potential from superposition of free atoms

     starting charge     219.9927, renormalised to     220.0000

     negative rho (up, down):  5.334E-02 0.000E+00
     Starting wfcs are  260 randomized atomic wfcs
     Checking if some PAW data can be deallocated... 

     total cpu time spent up to now is       66.1 secs

     Self-consistent Calculation

     iteration #  1     ecut=    60.00 Ry     beta= 0.20
     Davidson diagonalization with overlap
     ethr =  1.00E-02,  avg # of iterations =  2.8

     negative rho (up, down):  5.392E-02 0.000E+00

     total cpu time spent up to now is      103.6 secs

     total energy              =   -9107.85531296 Ry
     estimated scf accuracy    <       7.91854169 Ry

     iteration #  2     ecut=    60.00 Ry     beta= 0.20
     Davidson diagonalization with overlap
     ethr =  3.60E-03,  avg # of iterations =  2.8

     negative rho (up, down):  5.488E-02 0.000E+00

     total cpu time spent up to now is      141.5 secs

     total energy              =   -9107.67323927 Ry
     estimated scf accuracy    <      18.08799164 Ry

     iteration #  3     ecut=    60.00 Ry     beta= 0.20
     Davidson diagonalization with overlap
     ethr =  3.60E-03,  avg # of iterations =  1.1

     negative rho (up, down):  5.563E-02 0.000E+00

     total cpu time spent up to now is      178.6 secs

     total energy              =   -9109.80819086 Ry
     estimated scf accuracy    <       2.51661858 Ry

     iteration #  4     ecut=    60.00 Ry     beta= 0.20
     Davidson diagonalization with overlap
     ethr =  1.14E-03,  avg # of iterations =  1.4

     negative rho (up, down):  5.671E-02 0.000E+00

     total cpu time spent up to now is      215.7 secs

     total energy              =   -9109.85835205 Ry
     estimated scf accuracy    <       1.15987498 Ry

     iteration #  5     ecut=    60.00 Ry     beta= 0.20
     Davidson diagonalization with overlap
     ethr =  5.27E-04,  avg # of iterations =  1.0

     negative rho (up, down):  5.882E-02 0.000E+00

     total cpu time spent up to now is      253.2 secs

     total energy              =   -9109.75957755 Ry
     estimated scf accuracy    <       0.67013613 Ry

     iteration #  6     ecut=    60.00 Ry     beta= 0.20
     Davidson diagonalization with overlap
     ethr =  3.05E-04,  avg # of iterations =  1.3

     negative rho (up, down):  6.152E-02 0.000E+00

     total cpu time spent up to now is      290.4 secs

     total energy              =   -9109.76009631 Ry
     estimated scf accuracy    <       0.37128743 Ry

     iteration #  7     ecut=    60.00 Ry     beta= 0.20
     Davidson diagonalization with overlap
     ethr =  1.69E-04,  avg # of iterations =  3.6

     negative rho (up, down):  6.181E-02 0.000E+00

     total cpu time spent up to now is      328.3 secs

     total energy              =   -9109.79669067 Ry
     estimated scf accuracy    <       0.61023196 Ry

     iteration #  8     ecut=    60.00 Ry     beta= 0.20
     Davidson diagonalization with overlap
     ethr =  1.69E-04,  avg # of iterations =  1.0

     negative rho (up, down):  6.202E-02 0.000E+00

     total cpu time spent up to now is      365.3 secs

     total energy              =   -9109.76462328 Ry
     estimated scf accuracy    <       0.21698043 Ry

     iteration #  9     ecut=    60.00 Ry     beta= 0.20
     Davidson diagonalization with overlap
     ethr =  9.86E-05,  avg # of iterations =  1.8

     negative rho (up, down):  6.241E-02 0.000E+00

     total cpu time spent up to now is      402.7 secs

     total energy              =   -9109.79533749 Ry
     estimated scf accuracy    <       0.04333919 Ry

     iteration # 10     ecut=    60.00 Ry     beta= 0.20
     Davidson diagonalization with overlap
     ethr =  1.97E-05,  avg # of iterations =  6.9

     negative rho (up, down):  6.346E-02 0.000E+00

     total cpu time spent up to now is      440.7 secs

     total energy              =   -9109.79286937 Ry
     estimated scf accuracy    <       0.08069213 Ry

     iteration # 11     ecut=    60.00 Ry     beta= 0.20
     Davidson diagonalization with overlap
     ethr =  1.97E-05,  avg # of iterations =  1.1

     negative rho (up, down):  6.420E-02 0.000E+00

     total cpu time spent up to now is      478.0 secs

     total energy              =   -9109.78934626 Ry
     estimated scf accuracy    <       0.03873640 Ry

     iteration # 12     ecut=    60.00 Ry     beta= 0.20
     Davidson diagonalization with overlap
     ethr =  1.76E-05,  avg # of iterations =  1.1

     negative rho (up, down):  6.454E-02 0.000E+00

     total cpu time spent up to now is      515.5 secs

     total energy              =   -9109.79115578 Ry
     estimated scf accuracy    <       0.00344425 Ry

     iteration # 13     ecut=    60.00 Ry     beta= 0.20
     Davidson diagonalization with overlap
     ethr =  1.57E-06,  avg # of iterations =  7.3

     negative rho (up, down):  6.472E-02 0.000E+00

     total cpu time spent up to now is      553.4 secs

     total energy              =   -9109.79139664 Ry
     estimated scf accuracy    <       0.00057923 Ry

     iteration # 14     ecut=    60.00 Ry     beta= 0.20
     Davidson diagonalization with overlap
     ethr =  2.63E-07,  avg # of iterations =  2.6

     negative rho (up, down):  6.480E-02 0.000E+00

     total cpu time spent up to now is      591.1 secs

     total energy              =   -9109.79147587 Ry
     estimated scf accuracy    <       0.00013342 Ry

     iteration # 15     ecut=    60.00 Ry     beta= 0.20
     Davidson diagonalization with overlap
     ethr =  6.06E-08,  avg # of iterations =  2.8

     negative rho (up, down):  6.488E-02 0.000E+00

     total cpu time spent up to now is      628.8 secs

     total energy              =   -9109.79148223 Ry
     estimated scf accuracy    <       0.00009603 Ry

     iteration # 16     ecut=    60.00 Ry     beta= 0.20
     Davidson diagonalization with overlap
     ethr =  4.36E-08,  avg # of iterations =  1.8

     negative rho (up, down):  6.484E-02 0.000E+00

     total cpu time spent up to now is      666.3 secs

     total energy              =   -9109.79148049 Ry
     estimated scf accuracy    <       0.00011593 Ry

     iteration # 17     ecut=    60.00 Ry     beta= 0.20
     Davidson diagonalization with overlap
     ethr =  4.36E-08,  avg # of iterations =  1.0

     negative rho (up, down):  6.490E-02 0.000E+00

     total cpu time spent up to now is      703.4 secs

     total energy              =   -9109.79148860 Ry
     estimated scf accuracy    <       0.00007131 Ry

     iteration # 18     ecut=    60.00 Ry     beta= 0.20
     Davidson diagonalization with overlap
     ethr =  3.24E-08,  avg # of iterations =  1.0

     negative rho (up, down):  6.486E-02 0.000E+00

     total cpu time spent up to now is      741.5 secs

     total energy              =   -9109.79149133 Ry
     estimated scf accuracy    <       0.00000820 Ry

     iteration # 19     ecut=    60.00 Ry     beta= 0.20
     Davidson diagonalization with overlap
     ethr =  3.73E-09,  avg # of iterations =  2.0

     negative rho (up, down):  6.482E-02 0.000E+00

     total cpu time spent up to now is      779.0 secs

     total energy              =   -9109.79149266 Ry
     estimated scf accuracy    <       0.00000482 Ry

     iteration # 20     ecut=    60.00 Ry     beta= 0.20
     Davidson diagonalization with overlap
     ethr =  2.19E-09,  avg # of iterations =  1.0

     negative rho (up, down):  6.479E-02 0.000E+00

     total cpu time spent up to now is      816.1 secs

     total energy              =   -9109.79149244 Ry
     estimated scf accuracy    <       0.00000362 Ry

     iteration # 21     ecut=    60.00 Ry     beta= 0.20
     Davidson diagonalization with overlap
     ethr =  1.65E-09,  avg # of iterations =  1.0

     negative rho (up, down):  6.478E-02 0.000E+00

     total cpu time spent up to now is      853.7 secs

     total energy              =   -9109.79149256 Ry
     estimated scf accuracy    <       0.00000098 Ry

     iteration # 22     ecut=    60.00 Ry     beta= 0.20
     Davidson diagonalization with overlap
     ethr =  4.48E-10,  avg # of iterations =  2.0

     negative rho (up, down):  6.476E-02 0.000E+00

     total cpu time spent up to now is      891.2 secs

     total energy              =   -9109.79149264 Ry
     estimated scf accuracy    <       0.00000096 Ry

     iteration # 23     ecut=    60.00 Ry     beta= 0.20
     Davidson diagonalization with overlap
     ethr =  4.37E-10,  avg # of iterations =  1.0

     negative rho (up, down):  6.474E-02 0.000E+00

     total cpu time spent up to now is      928.5 secs

     total energy              =   -9109.79149269 Ry
     estimated scf accuracy    <       0.00000022 Ry

     iteration # 24     ecut=    60.00 Ry     beta= 0.20
     Davidson diagonalization with overlap
     ethr =  9.86E-11,  avg # of iterations =  2.0

     negative rho (up, down):  6.473E-02 0.000E+00

     total cpu time spent up to now is      966.3 secs

     total energy              =   -9109.79149272 Ry
     estimated scf accuracy    <       0.00000009 Ry

     iteration # 25     ecut=    60.00 Ry     beta= 0.20
     Davidson diagonalization with overlap
     ethr =  4.07E-11,  avg # of iterations =  2.0

     negative rho (up, down):  6.471E-02 0.000E+00

     total cpu time spent up to now is     1003.7 secs

     total energy              =   -9109.79149273 Ry
     estimated scf accuracy    <       0.00000006 Ry

     iteration # 26     ecut=    60.00 Ry     beta= 0.20
     Davidson diagonalization with overlap
     ethr =  2.84E-11,  avg # of iterations =  1.6

     negative rho (up, down):  6.471E-02 0.000E+00

     total cpu time spent up to now is     1041.9 secs

     total energy              =   -9109.79149274 Ry
     estimated scf accuracy    <       0.00000001 Ry

     iteration # 27     ecut=    60.00 Ry     beta= 0.20
     Davidson diagonalization with overlap
     ethr =  6.12E-12,  avg # of iterations =  3.7

     negative rho (up, down):  6.469E-02 0.000E+00

     total cpu time spent up to now is     1079.4 secs

     End of self-consistent calculation

          k = 0.0000 0.0000 0.0000 ( 92397 PWs)   bands (ev):

  -103.5549-103.5549-103.5475-103.5475-103.1834-103.1834 -69.3236 -69.3236
   -69.3233 -69.3233 -64.1418 -64.1416 -64.1399 -64.1395 -63.9640 -63.9640
   -63.9191 -63.9191 -63.8174 -63.8174 -63.7944 -63.7943 -63.6853 -63.6851
   -63.6395 -63.6394 -63.4713 -63.4712 -35.7779 -35.7776 -35.7773 -35.7770
   -35.7378 -35.7377 -35.7373 -35.7373 -35.6807 -35.6779 -35.6770 -35.6741
   -12.8885 -12.5789 -12.5426 -12.1296 -12.0128 -11.9398 -11.8391 -11.8102
   -11.7021 -11.5305  -6.1729  -5.9168  -5.7090  -5.6678  -5.4340  -5.3992
    -5.3115  -4.7384  -4.6132  -4.2861  -4.1365  -4.0396  -4.0177  -3.8879
    -3.7596  -3.7043  -3.6772  -3.6759  -3.6409  -3.5997  -3.3007  -3.1488
    -3.0697  -3.0663  -2.9336  -2.8120  -2.7838  -2.6934  -2.6414  -2.5551
    -2.4953  -2.4529  -2.4267  -2.2884  -2.2634  -2.2456  -2.1329  -2.0325
    -1.9629  -1.9607  -1.8301  -1.7902  -1.7025  -1.6815  -1.6031  -1.5485
    -1.5179  -1.4831  -1.4419  -1.3611  -1.2531  -1.1772  -1.1424  -1.0383
    -0.9228  -0.7985  -0.7574  -0.7195  -0.5716  -0.5326  -0.3542  -0.3134
     0.1827   0.3625   0.4965   0.6670   0.8447   0.8806   0.8848   1.1062
     1.2258   1.2497   1.4502   1.5044   1.7538   2.0630   2.2463   2.2645
     2.4204   2.4501   2.4878   2.7228

          k = 0.0000 0.4463 0.0000 ( 92409 PWs)   bands (ev):

  -103.5548-103.5548-103.5477-103.5477-103.1834-103.1834 -69.3236 -69.3235
   -69.3233 -69.3233 -64.1418 -64.1417 -64.1398 -64.1395 -63.9634 -63.9633
   -63.9202 -63.9201 -63.8168 -63.8167 -63.7948 -63.7947 -63.6853 -63.6850
   -63.6395 -63.6395 -63.4713 -63.4712 -35.7784 -35.7781 -35.7777 -35.7774
   -35.7398 -35.7397 -35.7393 -35.7392 -35.6804 -35.6777 -35.6767 -35.6739
   -12.8188 -12.5110 -12.4846 -12.0968 -11.9675 -11.9126 -11.8009 -11.7804
   -11.6716 -11.5125  -6.1157  -5.8645  -5.6446  -5.5938  -5.3953  -5.3499
    -5.2382  -4.6868  -4.5779  -4.2697  -4.1738  -4.0955  -4.0650  -3.9793
    -3.9783  -3.7823  -3.7684  -3.7158  -3.5485  -3.4899  -3.4397  -3.2240
    -3.1773  -3.0253  -2.9918  -2.9483  -2.9350  -2.8988  -2.7760  -2.6312
    -2.5955  -2.5095  -2.4577  -2.3673  -2.3597  -2.1623  -2.1327  -2.1115
    -1.9849  -1.9833  -1.9379  -1.8984  -1.7777  -1.7383  -1.6643  -1.6455
    -1.5405  -1.5340  -1.3825  -1.3028  -1.2894  -1.2247  -1.1981  -1.0109
    -0.9408  -0.8594  -0.8236  -0.6886  -0.6499  -0.5982  -0.2169  -0.0981
     0.1565   0.3361   0.5495   0.6450   0.7417   0.8326   0.9803   1.1029
     1.1389   1.2038   1.3647   1.4642   1.8205   1.8524   1.9800   2.0360
     2.1663   2.2948   2.7355   3.0279

          k = 0.0000 0.8926 0.0000 ( 92337 PWs)   bands (ev):

  -103.5544-103.5544-103.5480-103.5480-103.1834-103.1834 -69.3234 -69.3234
   -69.3232 -69.3232 -64.1418 -64.1418 -64.1397 -64.1396 -63.9614 -63.9614
   -63.9230 -63.9230 -63.8148 -63.8147 -63.7956 -63.7955 -63.6853 -63.6850
   -63.6395 -63.6394 -63.4713 -63.4711 -35.7799 -35.7797 -35.7793 -35.7791
   -35.7445 -35.7443 -35.7438 -35.7437 -35.6794 -35.6771 -35.6759 -35.6735
   -12.6210 -12.3240 -12.3197 -12.0046 -11.8511 -11.8447 -11.6978 -11.6905
   -11.5949 -11.4662  -5.9890  -5.7512  -5.4927  -5.4349  -5.3033  -5.2293
    -5.0570  -4.7374  -4.5915  -4.3822  -4.3120  -4.2680  -4.1777  -4.1671
    -4.1282  -3.9660  -3.9294  -3.8290  -3.7525  -3.7212  -3.4330  -3.4101
    -3.4054  -3.2726  -3.2161  -3.1507  -3.0926  -2.9282  -2.8580  -2.7983
    -2.6933  -2.6744  -2.6087  -2.5115  -2.3862  -2.2853  -2.2084  -2.1873
    -2.1804  -2.0893  -1.9485  -1.9102  -1.8391  -1.7826  -1.7283  -1.7137
    -1.6950  -1.6145  -1.5855  -1.3021  -1.2641  -1.2582  -1.2206  -1.1662
    -1.0158  -1.0141  -0.9880  -0.7701  -0.7660  -0.6767   0.0534   0.1334
     0.1978   0.4752   0.5404   0.6072   0.7206   0.7979   0.8276   0.8984
     1.1781   1.2282   1.3199   1.5309   1.5835   1.8275   1.8675   1.9471
     2.0476   2.2099   3.1874   3.3020

          k = 0.0000 1.3389 0.0000 ( 92488 PWs)   bands (ev):

  -103.5539-103.5539-103.5485-103.5485-103.1834-103.1834 -69.3233 -69.3232
   -69.3231 -69.3230 -64.1420 -64.1420 -64.1398 -64.1397 -63.9591 -63.9590
   -63.9273 -63.9272 -63.8122 -63.8121 -63.7970 -63.7970 -63.6853 -63.6851
   -63.6396 -63.6396 -63.4715 -63.4714 -35.7830 -35.7828 -35.7824 -35.7822
   -35.7491 -35.7490 -35.7483 -35.7482 -35.6782 -35.6765 -35.6748 -35.6731
   -12.3319 -12.1066 -12.0450 -11.8688 -11.7678 -11.7114 -11.5913 -11.5348
   -11.5175 -11.4123  -5.9522  -5.7586  -5.5537  -5.5374  -5.2308  -5.1079
    -5.1003  -4.8734  -4.8285  -4.5753  -4.4841  -4.4806  -4.2626  -4.2184
    -4.1817  -4.0223  -4.0215  -3.9572  -3.8286  -3.7493  -3.6192  -3.5680
    -3.4372  -3.4172  -3.2768  -3.2471  -3.2160  -3.0731  -2.9404  -2.8253
    -2.7988  -2.7658  -2.6543  -2.6127  -2.4637  -2.3439  -2.3018  -2.2809
    -2.2537  -2.2023  -2.0641  -2.0161  -1.9528  -1.8606  -1.8222  -1.7304
    -1.7271  -1.6773  -1.6441  -1.5142  -1.3720  -1.3415  -1.3217  -1.2388
    -1.1872  -1.1590  -1.0520  -0.9212  -0.8800  -0.8397   0.0003   0.1276
     0.3043   0.5618   0.6247   0.7227   0.8222   0.8224   0.8460   0.9360
     1.1390   1.3214   1.3710   1.6421   1.7352   1.8058   1.9703   2.1214
     2.2027   2.2661   2.8372   2.9848

          k = 0.0000 1.7852 0.0000 ( 92560 PWs)   bands (ev):

  -103.5534-103.5534-103.5490-103.5490-103.1834-103.1834 -69.3232 -69.3231
   -69.3230 -69.3229 -64.1422 -64.1421 -64.1399 -64.1397 -63.9566 -63.9565
   -63.9311 -63.9311 -63.8096 -63.8096 -63.7985 -63.7985 -63.6854 -63.6852
   -63.6396 -63.6396 -63.4717 -63.4716 -35.7865 -35.7863 -35.7860 -35.7858
   -35.7518 -35.7517 -35.7509 -35.7508 -35.6771 -35.6761 -35.6739 -35.6728
   -12.0267 -11.9179 -11.7665 -11.7097 -11.7096 -11.5977 -11.5199 -11.5054
   -11.4074 -11.3760  -6.0949  -6.0280  -5.9641  -5.9486  -5.3297  -5.1886
    -5.0857  -5.0124  -4.8308  -4.7388  -4.4653  -4.3854  -4.3164  -4.1297
    -4.0651  -3.9859  -3.8551  -3.8168  -3.7951  -3.7643  -3.6201  -3.5673
    -3.5430  -3.4379  -3.4279  -3.4202  -3.1605  -3.1527  -3.0477  -3.0078
    -2.7806  -2.7473  -2.6536  -2.6158  -2.5023  -2.4561  -2.3543  -2.3049
    -2.2919  -2.1996  -2.1815  -2.1078  -2.0697  -1.9582  -1.9556  -1.8218
    -1.7072  -1.6683  -1.6481  -1.6337  -1.4637  -1.4471  -1.4054  -1.3961
    -1.2751  -1.2444  -1.1884  -1.0573  -1.0445  -0.9246  -0.1179  -0.0033
     0.4275   0.6779   0.6920   0.7011   0.7881   0.9580   1.0445   1.1176
     1.2428   1.2781   1.3576   1.5881   1.6496   2.0108   2.0609   2.2500
     2.4781   2.5324   2.6002   2.6842

          k = 0.0000-2.2316 0.0000 ( 92530 PWs)   bands (ev):

  -103.5532-103.5532-103.5492-103.5492-103.1834-103.1834 -69.3231 -69.3231
   -69.3229 -69.3229 -64.1421 -64.1421 -64.1399 -64.1396 -63.9554 -63.9554
   -63.9327 -63.9327 -63.8084 -63.8084 -63.7993 -63.7992 -63.6853 -63.6851
   -63.6396 -63.6396 -63.4718 -63.4717 -35.7881 -35.7879 -35.7876 -35.7874
   -35.7526 -35.7525 -35.7516 -35.7515 -35.6766 -35.6761 -35.6734 -35.6728
   -11.8694 -11.8436 -11.6683 -11.6230 -11.6093 -11.5614 -11.5558 -11.5215
   -11.3701 -11.3657  -6.1998  -6.1751  -6.1508  -6.1208  -5.4411  -5.3238
    -5.0267  -5.0258  -4.8623  -4.8549  -4.3407  -4.2919  -4.1274  -4.0815
    -4.0679  -3.9535  -3.8444  -3.7121  -3.7110  -3.7067  -3.6332  -3.6301
    -3.6239  -3.5694  -3.3877  -3.3688  -3.2162  -3.1576  -3.1292  -3.0904
    -2.7237  -2.7220  -2.6311  -2.6259  -2.5283  -2.4840  -2.3715  -2.3653
    -2.2705  -2.2491  -2.1603  -2.1461  -2.0476  -2.0342  -2.0021  -1.8763
    -1.7247  -1.7104  -1.6046  -1.5992  -1.5173  -1.4796  -1.4789  -1.4622
    -1.3687  -1.3107  -1.2182  -1.1689  -1.0630  -0.9265  -0.1430  -0.0463
     0.4835   0.5452   0.7641   0.7696   0.7962   0.9896   1.0164   1.0966
     1.2752   1.2839   1.4708   1.4966   1.7156   1.8947   2.0772   2.1890
     2.4813   2.5715   2.6487   2.8778

          k =-0.5000 0.0000 0.0000 ( 92454 PWs)   bands (ev):

  -103.5549-103.5549-103.5475-103.5475-103.1834-103.1834 -69.3236 -69.3236
   -69.3233 -69.3233 -64.1418 -64.1418 -64.1397 -64.1397 -63.9640 -63.9640
   -63.9191 -63.9191 -63.8175 -63.8175 -63.7944 -63.7944 -63.6853 -63.6852
   -63.6395 -63.6395 -63.4713 -63.4712 -35.7779 -35.7778 -35.7772 -35.7771
   -35.7378 -35.7377 -35.7373 -35.7373 -35.6798 -35.6797 -35.6751 -35.6750
   -12.8024 -12.8024 -12.2256 -12.2256 -12.0745 -12.0745 -11.7831 -11.7831
   -11.6012 -11.6012  -6.0781  -6.0780  -5.7053  -5.7053  -5.3837  -5.3836
    -5.0029  -5.0028  -4.5748  -4.5747  -4.0311  -4.0311  -3.8799  -3.8799
    -3.6771  -3.6771  -3.6280  -3.6279  -3.5820  -3.5820  -3.3216  -3.3215
    -3.2163  -3.2163  -2.8088  -2.8088  -2.7617  -2.7617  -2.6145  -2.6145
    -2.4723  -2.4723  -2.3320  -2.3320  -2.2534  -2.2534  -2.0725  -2.0725
    -1.9070  -1.9069  -1.8248  -1.8248  -1.6854  -1.6854  -1.6112  -1.6112
    -1.4977  -1.4977  -1.3875  -1.3874  -1.2175  -1.2174  -1.0872  -1.0872
    -0.8470  -0.8470  -0.7188  -0.7188  -0.5816  -0.5816  -0.3225  -0.3225
     0.2531   0.2531   0.6136   0.6136   0.9168   0.9168   1.0074   1.0074
     1.0639   1.0639   1.4978   1.4978   1.9106   1.9106   2.2634   2.2634
     2.4353   2.4354   2.6205   2.6206

          k =-0.5000 0.4463 0.0000 ( 92436 PWs)   bands (ev):

  -103.5548-103.5548-103.5477-103.5477-103.1834-103.1834 -69.3236 -69.3235
   -69.3233 -69.3233 -64.1418 -64.1418 -64.1397 -64.1397 -63.9633 -63.9633
   -63.9202 -63.9202 -63.8168 -63.8168 -63.7947 -63.7947 -63.6853 -63.6852
   -63.6395 -63.6395 -63.4712 -63.4712 -35.7783 -35.7782 -35.7776 -35.7775
   -35.7398 -35.7397 -35.7392 -35.7392 -35.6795 -35.6794 -35.6749 -35.6748
   -12.7343 -12.7343 -12.1701 -12.1701 -12.0439 -12.0439 -11.7522 -11.7522
   -11.5776 -11.5776  -6.0197  -6.0196  -5.6360  -5.6360  -5.3352  -5.3351
    -4.9636  -4.9636  -4.5371  -4.5371  -4.1166  -4.1166  -3.9731  -3.9731
    -3.7586  -3.7586  -3.6383  -3.6383  -3.5911  -3.5911  -3.3552  -3.3552
    -3.2401  -3.2400  -2.9359  -2.9359  -2.9011  -2.9011  -2.7619  -2.7619
    -2.5282  -2.5282  -2.4337  -2.4337  -2.2487  -2.2487  -2.0990  -2.0990
    -1.9499  -1.9499  -1.9379  -1.9378  -1.7317  -1.7317  -1.6700  -1.6700
    -1.5241  -1.5241  -1.3663  -1.3662  -1.2272  -1.2271  -1.0744  -1.0744
    -0.9638  -0.9638  -0.8147  -0.8147  -0.5272  -0.5272  -0.1630  -0.1630
     0.2542   0.2542   0.6392   0.6392   0.8356   0.8356   0.9315   0.9316
     1.1405   1.1405   1.4505   1.4505   1.7535   1.7535   2.0396   2.0396
     2.2179   2.2179   2.8801   2.8801

          k =-0.5000 0.8926 0.0000 ( 92394 PWs)   bands (ev):

  -103.5544-103.5544-103.5480-103.5480-103.1834-103.1834 -69.3234 -69.3234
   -69.3232 -69.3232 -64.1418 -64.1418 -64.1397 -64.1397 -63.9615 -63.9615
   -63.9231 -63.9231 -63.8148 -63.8148 -63.7956 -63.7956 -63.6852 -63.6852
   -63.6396 -63.6395 -63.4713 -63.4712 -35.7798 -35.7798 -35.7792 -35.7791
   -35.7444 -35.7444 -35.7438 -35.7437 -35.6787 -35.6786 -35.6744 -35.6743
   -12.5418 -12.5417 -12.0191 -12.0191 -11.9589 -11.9588 -11.6728 -11.6728
   -11.5146 -11.5145  -5.8889  -5.8888  -5.4592  -5.4592  -5.2444  -5.2444
    -4.9511  -4.9511  -4.4944  -4.4943  -4.2798  -4.2798  -4.2315  -4.2315
    -3.9004  -3.9004  -3.8138  -3.8137  -3.7290  -3.7289  -3.4977  -3.4977
    -3.3725  -3.3725  -3.1622  -3.1621  -3.0395  -3.0395  -2.8607  -2.8607
    -2.7029  -2.7029  -2.5724  -2.5724  -2.2956  -2.2956  -2.2275  -2.2275
    -2.1095  -2.1094  -1.9408  -1.9408  -1.7931  -1.7931  -1.7347  -1.7347
    -1.5976  -1.5976  -1.4763  -1.4763  -1.3070  -1.3069  -1.1784  -1.1784
    -1.0752  -1.0751  -0.8147  -0.8147  -0.6641  -0.6641   0.0743   0.0743
     0.3292   0.3292   0.5649   0.5649   0.8403   0.8403   0.9429   0.9429
     1.0798   1.0798   1.3524   1.3524   1.7373   1.7373   1.8830   1.8830
     2.1300   2.1300   3.2438   3.2438

          k =-0.5000 1.3389 0.0000 ( 92424 PWs)   bands (ev):

  -103.5539-103.5539-103.5485-103.5485-103.1834-103.1834 -69.3233 -69.3232
   -69.3231 -69.3230 -64.1419 -64.1419 -64.1397 -64.1397 -63.9590 -63.9590
   -63.9272 -63.9272 -63.8121 -63.8121 -63.7969 -63.7969 -63.6852 -63.6851
   -63.6396 -63.6395 -63.4715 -63.4714 -35.7829 -35.7829 -35.7823 -35.7823
   -35.7491 -35.7490 -35.7482 -35.7482 -35.6776 -35.6775 -35.6738 -35.6737
   -12.2640 -12.2639 -11.8564 -11.8564 -11.8036 -11.8036 -11.5823 -11.5823
   -11.4374 -11.4374  -5.8752  -5.8752  -5.4460  -5.4460  -5.2798  -5.2798
    -5.0745  -5.0745  -4.5847  -4.5847  -4.5095  -4.5094  -4.1977  -4.1977
    -4.0698  -4.0698  -4.0001  -4.0001  -3.7739  -3.7739  -3.6565  -3.6565
    -3.3906  -3.3906  -3.2069  -3.2069  -3.1687  -3.1687  -2.9513  -2.9513
    -2.7750  -2.7749  -2.6648  -2.6648  -2.4108  -2.4108  -2.2711  -2.2711
    -2.2476  -2.2476  -2.0550  -2.0550  -1.8549  -1.8549  -1.7835  -1.7834
    -1.6637  -1.6637  -1.6186  -1.6186  -1.3382  -1.3382  -1.3124  -1.3124
    -1.1533  -1.1532  -0.9996  -0.9996  -0.8540  -0.8540   0.0461   0.0461
     0.5015   0.5015   0.7046   0.7047   0.8000   0.8000   0.9485   0.9485
     1.1738   1.1738   1.3881   1.3881   1.9293   1.9293   2.0149   2.0149
     2.1194   2.1194   2.9284   2.9285

          k =-0.5000 1.7852 0.0000 ( 92528 PWs)   bands (ev):

  -103.5534-103.5534-103.5490-103.5490-103.1834-103.1834 -69.3232 -69.3231
   -69.3230 -69.3229 -64.1421 -64.1421 -64.1398 -64.1398 -63.9565 -63.9565
   -63.9311 -63.9311 -63.8096 -63.8096 -63.7985 -63.7985 -63.6853 -63.6853
   -63.6396 -63.6395 -63.4717 -63.4716 -35.7865 -35.7864 -35.7859 -35.7858
   -35.7518 -35.7517 -35.7508 -35.7508 -35.6767 -35.6767 -35.6733 -35.6732
   -11.9833 -11.9832 -11.7415 -11.7415 -11.6279 -11.6279 -11.5306 -11.5306
   -11.3851 -11.3851  -6.1282  -6.1282  -5.8449  -5.8449  -5.3269  -5.3268
    -5.0571  -5.0570  -4.7856  -4.7856  -4.4089  -4.4089  -4.2391  -4.2391
    -4.0066  -4.0065  -3.8667  -3.8667  -3.7270  -3.7270  -3.6135  -3.6135
    -3.5134  -3.5134  -3.3504  -3.3504  -3.1355  -3.1355  -2.9978  -2.9978
    -2.8430  -2.8430  -2.6256  -2.6256  -2.5353  -2.5353  -2.3732  -2.3731
    -2.2287  -2.2287  -2.1357  -2.1357  -1.9728  -1.9728  -1.8571  -1.8571
    -1.7093  -1.7092  -1.6407  -1.6407  -1.4732  -1.4732  -1.3708  -1.3708
    -1.2784  -1.2784  -1.1558  -1.1558  -0.9640  -0.9640  -0.0596  -0.0595
     0.5327   0.5328   0.8156   0.8157   0.9543   0.9543   0.9982   0.9982
     1.2039   1.2040   1.4163   1.4163   1.7887   1.7887   2.2919   2.2919
     2.3464   2.3464   2.6433   2.6433

          k =-0.5000-2.2316 0.0000 ( 92472 PWs)   bands (ev):

  -103.5532-103.5532-103.5492-103.5492-103.1834-103.1834 -69.3231 -69.3231
   -69.3229 -69.3229 -64.1421 -64.1421 -64.1397 -64.1397 -63.9554 -63.9554
   -63.9327 -63.9327 -63.8083 -63.8083 -63.7992 -63.7992 -63.6852 -63.6852
   -63.6395 -63.6395 -63.4717 -63.4717 -35.7881 -35.7880 -35.7875 -35.7874
   -35.7525 -35.7525 -35.7516 -35.7516 -35.6764 -35.6763 -35.6731 -35.6731
   -11.8561 -11.8560 -11.6606 -11.6606 -11.5630 -11.5630 -11.5463 -11.5463
   -11.3680 -11.3680  -6.2823  -6.2823  -6.0039  -6.0039  -5.4199  -5.4199
    -4.9921  -4.9921  -4.9225  -4.9225  -4.2588  -4.2588  -4.2038  -4.2038
    -3.9792  -3.9792  -3.7326  -3.7325  -3.7009  -3.7009  -3.6663  -3.6663
    -3.5629  -3.5628  -3.4410  -3.4409  -3.1139  -3.1139  -2.9410  -2.9410
    -2.8962  -2.8962  -2.6102  -2.6102  -2.5684  -2.5684  -2.3986  -2.3986
    -2.2730  -2.2730  -2.1015  -2.1015  -2.0199  -2.0199  -1.9204  -1.9204
    -1.7350  -1.7350  -1.6093  -1.6093  -1.5290  -1.5290  -1.4249  -1.4249
    -1.3695  -1.3694  -1.1972  -1.1972  -0.9886  -0.9886  -0.0900  -0.0900
     0.5277   0.5278   0.8167   0.8167   0.8976   0.8976   1.0281   1.0281
     1.2847   1.2847   1.5022   1.5023   1.6783   1.6784   2.2400   2.2400
     2.3838   2.3838   2.8105   2.8105

     the Fermi energy is    -0.4377 ev

!    total energy              =   -9109.79149274 Ry
     total all-electron energy =     -9109.791493 Ry
     estimated scf accuracy    <          5.0E-09 Ry
     smearing contrib. (-TS)   =      -0.00000001 Ry
     internal energy E=F+TS    =   -9109.79149273 Ry

     The total energy is F=E-TS. E is the sum of the following terms:
     one-electron contribution =  -15369.90447755 Ry
     hartree contribution      =    7540.94251327 Ry
     xc contribution           =    -364.01241988 Ry
     ewald contribution        =    5350.78322997 Ry
     one-center paw contrib.   =   -6267.60033854 Ry

     convergence has been achieved in  27 iterations

     negative rho (up, down):  6.469E-02 0.000E+00

     Forces acting on atoms (cartesian axes, Ry/au):

     atom    1 type  1   force =    -0.01223063   -0.02652186    0.01505596
     atom    2 type  1   force =    -0.01224813    0.02650223   -0.01505499
     atom    3 type  1   force =     0.01222873   -0.02653092    0.01507879
     atom    4 type  1   force =     0.01226024    0.02651638   -0.01508815
     atom    5 type  2   force =     0.00524439   -0.03095264    0.01137960
     atom    6 type  2   force =     0.00520772    0.03097732   -0.01138758
     atom    7 type  2   force =    -0.00517479   -0.03094829    0.01139100
     atom    8 type  2   force =    -0.00516595    0.03098140   -0.01144943
     atom    9 type  2   force =    -0.00002060   -0.01138189    0.00970857
     atom   10 type  2   force =     0.00003171    0.01138344   -0.00969028
     atom   11 type  3   force =    -0.00360487    0.02150604    0.02709368
     atom   12 type  3   force =    -0.00359871   -0.02150988   -0.02708412
     atom   13 type  3   force =     0.00520043   -0.01502913    0.02432418
     atom   14 type  3   force =     0.00520079    0.01502355   -0.02431048
     atom   15 type  3   force =     0.00363074    0.02150525    0.02709044
     atom   16 type  3   force =     0.00362709   -0.02151056   -0.02708018
     atom   17 type  3   force =    -0.00524403   -0.01502967    0.02432350
     atom   18 type  3   force =    -0.00525045    0.01502429   -0.02430865
     atom   19 type  3   force =    -0.00004701   -0.01278324    0.01490918
     atom   20 type  3   force =    -0.00004666    0.01277819   -0.01490105

     Total force =     0.134972     Total SCF correction =     0.000223


     Computing stress (Cartesian axis) and pressure


     negative rho (up, down):  6.469E-02 0.000E+00
          total   stress  (Ry/bohr**3)                   (kbar)     P=      -17.46
  -0.00005319   0.00000000  -0.00000000           -7.83        0.00       -0.00
   0.00000000  -0.00018622   0.00001564            0.00      -27.39        2.30
  -0.00000000   0.00001564  -0.00011662           -0.00        2.30      -17.15


     BFGS Geometry Optimization
     Energy error            =      0.0E+00 Ry
     Gradient error          =      3.1E-02 Ry/Bohr

     number of scf cycles    =   1
     number of bfgs steps    =   0

     energy             new  =   -9109.7914927356 Ry

     new trust radius        =       0.0347789053 bohr
     new conv_thr            =       0.0000000100 Ry


ATOMIC_POSITIONS (angstrom)
Ta              15.3853686567        0.9008888018       12.4518075041
Ta               6.5650690800        2.7587940597       12.5840295777
Ta               2.2716267783        0.9008840045       12.4516453151
Ta              11.0919411837        2.7588015425       12.5841721836
Ni              12.8671833717        0.8985441301       11.7677114207
Ni               4.0468559339        2.7611621709       13.2681179016
Ni               4.7897283410        0.8985464331       11.7674508150
Ni              13.6100269128        2.7611643318       13.2683422330
Ni               8.8283357647        0.9089005266       12.3733431506
Ni               0.0080936804        2.7507935369       12.6624819343
Te              14.2111347613        2.7561501855       10.5495941100
Te               5.3908175013        0.9035410286       14.4862398077
Te              10.5981850669        0.9069704922       10.5322056763
Te               1.7779022214        2.7527198031       14.5036304063
Te               3.4456099974        2.7561497687       10.5493691860
Te              12.2659089086        0.9035406643       14.4864623319
Te               7.0588434000        0.9069702072       10.5320427157
Te              15.8791234858        2.7527201916       14.5038035440
Te               0.0082740470        0.9081589666       10.8455086644
Te               8.8285332705        2.7515316085       14.1902925220



     Writing config-only to output data dir /ddn/data/physics/eamoujaes/2D-Ta2Ni3Te5/ELASTIC/C22/OUT/ta2ni3te5.save/ :
     XML data file
     NEW-OLD atomic charge density approx. for the potential

     negative rho (up, down):  6.547E-02 0.000E+00

     total cpu time spent up to now is     1175.1 secs

     Self-consistent Calculation

     iteration #  1     ecut=    60.00 Ry     beta= 0.20
     Davidson diagonalization with overlap
     ethr =  1.00E-06,  avg # of iterations =  8.5

     negative rho (up, down):  6.529E-02 0.000E+00

     total cpu time spent up to now is     1216.4 secs

     total energy              =   -9109.80195732 Ry
     estimated scf accuracy    <       0.01779416 Ry

     iteration #  2     ecut=    60.00 Ry     beta= 0.20
     Davidson diagonalization with overlap
     ethr =  8.09E-06,  avg # of iterations =  3.2

     negative rho (up, down):  6.527E-02 0.000E+00

     total cpu time spent up to now is     1254.2 secs

     total energy              =   -9109.80218240 Ry
     estimated scf accuracy    <       0.12679371 Ry

     iteration #  3     ecut=    60.00 Ry     beta= 0.20
     Davidson diagonalization with overlap
     ethr =  8.09E-06,  avg # of iterations =  2.0

     negative rho (up, down):  6.524E-02 0.000E+00

     total cpu time spent up to now is     1291.9 secs

     total energy              =   -9109.80837290 Ry
     estimated scf accuracy    <       0.00468476 Ry

     iteration #  4     ecut=    60.00 Ry     beta= 0.20
     Davidson diagonalization with overlap
     ethr =  2.13E-06,  avg # of iterations =  1.7

     negative rho (up, down):  6.514E-02 0.000E+00

     total cpu time spent up to now is     1329.2 secs

     total energy              =   -9109.80853615 Ry
     estimated scf accuracy    <       0.00130871 Ry

     iteration #  5     ecut=    60.00 Ry     beta= 0.20
     Davidson diagonalization with overlap
     ethr =  5.95E-07,  avg # of iterations =  2.0

     negative rho (up, down):  6.500E-02 0.000E+00

     total cpu time spent up to now is     1366.6 secs

     total energy              =   -9109.80852242 Ry
     estimated scf accuracy    <       0.00028519 Ry

     iteration #  6     ecut=    60.00 Ry     beta= 0.20
     Davidson diagonalization with overlap
     ethr =  1.30E-07,  avg # of iterations =  2.3

     negative rho (up, down):  6.493E-02 0.000E+00

     total cpu time spent up to now is     1404.3 secs

     total energy              =   -9109.80854948 Ry
     estimated scf accuracy    <       0.00010004 Ry

     iteration #  7     ecut=    60.00 Ry     beta= 0.20
     Davidson diagonalization with overlap
     ethr =  4.55E-08,  avg # of iterations =  2.0

     negative rho (up, down):  6.490E-02 0.000E+00

     total cpu time spent up to now is     1442.0 secs

     total energy              =   -9109.80855276 Ry
     estimated scf accuracy    <       0.00016573 Ry

     iteration #  8     ecut=    60.00 Ry     beta= 0.20
     Davidson diagonalization with overlap
     ethr =  4.55E-08,  avg # of iterations =  1.0

     negative rho (up, down):  6.485E-02 0.000E+00

     total cpu time spent up to now is     1479.5 secs

     total energy              =   -9109.80855993 Ry
     estimated scf accuracy    <       0.00003878 Ry

     iteration #  9     ecut=    60.00 Ry     beta= 0.20
     Davidson diagonalization with overlap
     ethr =  1.76E-08,  avg # of iterations =  2.0

     negative rho (up, down):  6.481E-02 0.000E+00

     total cpu time spent up to now is     1516.9 secs

     total energy              =   -9109.80856275 Ry
     estimated scf accuracy    <       0.00001911 Ry

     iteration # 10     ecut=    60.00 Ry     beta= 0.20
     Davidson diagonalization with overlap
     ethr =  8.68E-09,  avg # of iterations =  1.9

     negative rho (up, down):  6.480E-02 0.000E+00

     total cpu time spent up to now is     1554.2 secs

     total energy              =   -9109.80856468 Ry
     estimated scf accuracy    <       0.00000316 Ry

     iteration # 11     ecut=    60.00 Ry     beta= 0.20
     Davidson diagonalization with overlap
     ethr =  1.44E-09,  avg # of iterations =  2.1

     negative rho (up, down):  6.480E-02 0.000E+00

     total cpu time spent up to now is     1592.1 secs

     total energy              =   -9109.80856525 Ry
     estimated scf accuracy    <       0.00000320 Ry

     iteration # 12     ecut=    60.00 Ry     beta= 0.20
     Davidson diagonalization with overlap
     ethr =  1.44E-09,  avg # of iterations =  1.0

     negative rho (up, down):  6.478E-02 0.000E+00

     total cpu time spent up to now is     1629.4 secs

     total energy              =   -9109.80856581 Ry
     estimated scf accuracy    <       0.00000075 Ry

     iteration # 13     ecut=    60.00 Ry     beta= 0.20
     Davidson diagonalization with overlap
     ethr =  3.40E-10,  avg # of iterations =  2.0

     negative rho (up, down):  6.479E-02 0.000E+00

     total cpu time spent up to now is     1667.3 secs

     total energy              =   -9109.80856585 Ry
     estimated scf accuracy    <       0.00000029 Ry

     iteration # 14     ecut=    60.00 Ry     beta= 0.20
     Davidson diagonalization with overlap
     ethr =  1.32E-10,  avg # of iterations =  2.2

     negative rho (up, down):  6.478E-02 0.000E+00

     total cpu time spent up to now is     1705.2 secs

     total energy              =   -9109.80856596 Ry
     estimated scf accuracy    <       0.00000015 Ry

     iteration # 15     ecut=    60.00 Ry     beta= 0.20
     Davidson diagonalization with overlap
     ethr =  6.89E-11,  avg # of iterations =  2.2

     negative rho (up, down):  6.478E-02 0.000E+00

     total cpu time spent up to now is     1742.9 secs

     total energy              =   -9109.80856596 Ry
     estimated scf accuracy    <       0.00000013 Ry

     iteration # 16     ecut=    60.00 Ry     beta= 0.20
     Davidson diagonalization with overlap
     ethr =  5.83E-11,  avg # of iterations =  2.0

     negative rho (up, down):  6.478E-02 0.000E+00

     total cpu time spent up to now is     1780.4 secs

     total energy              =   -9109.80856596 Ry
     estimated scf accuracy    <       0.00000002 Ry

     iteration # 17     ecut=    60.00 Ry     beta= 0.20
     Davidson diagonalization with overlap
     ethr =  7.07E-12,  avg # of iterations =  5.0

     negative rho (up, down):  6.479E-02 0.000E+00

     total cpu time spent up to now is     1818.4 secs

     total energy              =   -9109.80856597 Ry
     estimated scf accuracy    <       0.00000002 Ry

     iteration # 18     ecut=    60.00 Ry     beta= 0.20
     Davidson diagonalization with overlap
     ethr =  7.07E-12,  avg # of iterations =  1.1

     negative rho (up, down):  6.479E-02 0.000E+00

     total cpu time spent up to now is     1855.7 secs

     total energy              =   -9109.80856597 Ry
     estimated scf accuracy    <       0.00000002 Ry

     iteration # 19     ecut=    60.00 Ry     beta= 0.20
     Davidson diagonalization with overlap
     ethr =  7.07E-12,  avg # of iterations =  1.0

     negative rho (up, down):  6.479E-02 0.000E+00

     total cpu time spent up to now is     1893.1 secs

     End of self-consistent calculation

          k = 0.0000 0.0000 0.0000 ( 92397 PWs)   bands (ev):

  -103.5741-103.5740-103.5668-103.5668-103.1823-103.1823 -69.3191 -69.3191
   -69.3189 -69.3189 -64.1627 -64.1624 -64.1612 -64.1609 -63.9859 -63.9858
   -63.9411 -63.9410 -63.8322 -63.8322 -63.8091 -63.8090 -63.6790 -63.6788
   -63.6359 -63.6357 -63.4787 -63.4786 -35.7728 -35.7725 -35.7722 -35.7718
   -35.7372 -35.7372 -35.7369 -35.7368 -35.6789 -35.6759 -35.6753 -35.6723
   -12.9187 -12.6173 -12.5615 -12.1380 -12.0344 -11.9438 -11.8643 -11.8252
   -11.7136 -11.5487  -6.1867  -5.9342  -5.7256  -5.6977  -5.4520  -5.4044
    -5.3339  -4.7685  -4.6382  -4.2969  -4.1628  -4.0501  -4.0323  -3.8866
    -3.8058  -3.7651  -3.7168  -3.6830  -3.6818  -3.6532  -3.3353  -3.1808
    -3.0798  -3.0793  -2.9822  -2.8255  -2.7915  -2.7165  -2.6392  -2.5612
    -2.5039  -2.4420  -2.4252  -2.2807  -2.2800  -2.2395  -2.1523  -2.0289
    -2.0056  -1.9947  -1.8323  -1.7938  -1.7299  -1.7146  -1.6245  -1.5624
    -1.5375  -1.5205  -1.4283  -1.3528  -1.2358  -1.1760  -1.1617  -1.0609
    -0.9325  -0.8146  -0.7516  -0.7230  -0.5949  -0.5364  -0.3337  -0.3073
     0.1322   0.3543   0.5116   0.6835   0.8742   0.8794   0.8932   1.1230
     1.2266   1.2452   1.4518   1.5047   1.7912   2.1044   2.3119   2.3322
     2.4611   2.4613   2.5676   2.7400

          k = 0.0000 0.4463 0.0000 ( 92409 PWs)   bands (ev):

  -103.5739-103.5739-103.5670-103.5669-103.1823-103.1823 -69.3191 -69.3191
   -69.3189 -69.3188 -64.1627 -64.1625 -64.1612 -64.1609 -63.9852 -63.9851
   -63.9423 -63.9421 -63.8315 -63.8314 -63.8095 -63.8094 -63.6790 -63.6787
   -63.6359 -63.6358 -63.4787 -63.4786 -35.7731 -35.7728 -35.7725 -35.7721
   -35.7394 -35.7393 -35.7390 -35.7389 -35.6786 -35.6757 -35.6750 -35.6721
   -12.8482 -12.5487 -12.5030 -12.1055 -11.9881 -11.9177 -11.8270 -11.7949
   -11.6831 -11.5314  -6.1305  -5.8822  -5.6616  -5.6247  -5.4129  -5.3549
    -5.2600  -4.7163  -4.6052  -4.2836  -4.1878  -4.1262  -4.0806  -4.0160
    -4.0100  -3.8375  -3.7903  -3.7372  -3.5817  -3.5166  -3.4682  -3.2516
    -3.1894  -3.0573  -3.0062  -2.9761  -2.9511  -2.9081  -2.7969  -2.6456
    -2.6057  -2.5106  -2.4626  -2.3709  -2.3551  -2.1747  -2.1668  -2.1077
    -2.0027  -1.9878  -1.9495  -1.9120  -1.8074  -1.7693  -1.6768  -1.6513
    -1.5639  -1.5545  -1.3671  -1.2981  -1.2887  -1.2247  -1.2112  -1.0121
    -0.9410  -0.8818  -0.8244  -0.7095  -0.6492  -0.6058  -0.2183  -0.0991
     0.1524   0.3221   0.5644   0.6577   0.7453   0.8570   0.9982   1.0999
     1.1349   1.2190   1.3692   1.4692   1.8523   1.8898   2.0275   2.0752
     2.2175   2.2901   2.7644   3.0522

          k = 0.0000 0.8926 0.0000 ( 92337 PWs)   bands (ev):

  -103.5735-103.5735-103.5674-103.5673-103.1823-103.1823 -69.3190 -69.3189
   -69.3188 -69.3187 -64.1627 -64.1627 -64.1611 -64.1609 -63.9830 -63.9829
   -63.9454 -63.9453 -63.8294 -63.8293 -63.8104 -63.8103 -63.6790 -63.6787
   -63.6359 -63.6358 -63.4787 -63.4785 -35.7744 -35.7741 -35.7738 -35.7735
   -35.7444 -35.7443 -35.7438 -35.7437 -35.6776 -35.6752 -35.6742 -35.6717
   -12.6480 -12.3548 -12.3414 -12.0139 -11.8698 -11.8533 -11.7186 -11.7102
   -11.6067 -11.4871  -6.0080  -5.7704  -5.5110  -5.4685  -5.3193  -5.2375
    -5.0782  -4.7818  -4.6188  -4.4073  -4.3442  -4.2927  -4.1972  -4.1966
    -4.1423  -3.9929  -3.9757  -3.8425  -3.7612  -3.7474  -3.4602  -3.4380
    -3.4294  -3.2875  -3.2220  -3.1615  -3.1191  -2.9544  -2.8635  -2.8238
    -2.7006  -2.6873  -2.6221  -2.5140  -2.3990  -2.2988  -2.2209  -2.2106
    -2.1866  -2.0973  -1.9751  -1.9204  -1.8474  -1.8099  -1.7329  -1.7311
    -1.7001  -1.6416  -1.6068  -1.2933  -1.2712  -1.2366  -1.2164  -1.1611
    -1.0304  -1.0202  -0.9928  -0.7846  -0.7694  -0.6826   0.0505   0.1304
     0.1903   0.5002   0.5473   0.6080   0.7302   0.8188   0.8339   0.8990
     1.1901   1.2293   1.3305   1.5383   1.6037   1.8562   1.8966   1.9667
     2.0731   2.2186   3.2271   3.3308

          k = 0.0000 1.3389 0.0000 ( 92488 PWs)   bands (ev):

  -103.5730-103.5729-103.5680-103.5679-103.1823-103.1823 -69.3188 -69.3188
   -69.3186 -69.3186 -64.1629 -64.1629 -64.1612 -64.1611 -63.9800 -63.9799
   -63.9503 -63.9502 -63.8266 -63.8265 -63.8120 -63.8119 -63.6790 -63.6788
   -63.6360 -63.6359 -63.4790 -63.4788 -35.7774 -35.7772 -35.7768 -35.7766
   -35.7493 -35.7491 -35.7485 -35.7484 -35.6763 -35.6745 -35.6731 -35.6713
   -12.3548 -12.1235 -12.0760 -11.8777 -11.7807 -11.7305 -11.6013 -11.5629
   -11.5304 -11.4361  -5.9800  -5.7839  -5.5842  -5.5759  -5.2447  -5.1396
    -5.1347  -4.8997  -4.8473  -4.5980  -4.5150  -4.5050  -4.2706  -4.2298
    -4.2097  -4.0558  -4.0444  -3.9734  -3.8326  -3.7545  -3.6375  -3.5920
    -3.4655  -3.4142  -3.2793  -3.2698  -3.2338  -3.0775  -2.9698  -2.8336
    -2.8122  -2.7776  -2.6852  -2.6256  -2.4843  -2.3575  -2.3172  -2.2996
    -2.2678  -2.2120  -2.0914  -2.0423  -1.9656  -1.8731  -1.8388  -1.7505
    -1.7453  -1.6857  -1.6585  -1.5234  -1.3709  -1.3379  -1.3198  -1.2430
    -1.1765  -1.1727  -1.0562  -0.9262  -0.8791  -0.8493  -0.0004   0.1195
     0.3071   0.5733   0.6408   0.7257   0.8343   0.8376   0.8538   0.9284
     1.1453   1.3314   1.3775   1.6518   1.7280   1.8195   2.0019   2.1462
     2.2220   2.2886   2.8782   3.0105

          k = 0.0000 1.7852 0.0000 ( 92560 PWs)   bands (ev):

  -103.5724-103.5723-103.5686-103.5685-103.1823-103.1823 -69.3187 -69.3187
   -69.3185 -69.3185 -64.1631 -64.1630 -64.1613 -64.1611 -63.9767 -63.9766
   -63.9550 -63.9549 -63.8237 -63.8236 -63.8138 -63.8137 -63.6791 -63.6789
   -63.6360 -63.6360 -63.4791 -63.4790 -35.7811 -35.7809 -35.7806 -35.7804
   -35.7519 -35.7518 -35.7510 -35.7509 -35.6751 -35.6742 -35.6720 -35.6710
   -12.0444 -11.9362 -11.7916 -11.7251 -11.7149 -11.6192 -11.5292 -11.5220
   -11.4349 -11.4026  -6.1304  -6.0648  -6.0015  -5.9918  -5.3456  -5.2130
    -5.1153  -5.0476  -4.8575  -4.7681  -4.4748  -4.4034  -4.3402  -4.1346
    -4.0693  -3.9964  -3.8701  -3.8188  -3.8045  -3.7695  -3.6265  -3.5726
    -3.5483  -3.4624  -3.4419  -3.4279  -3.1826  -3.1769  -3.0708  -3.0213
    -2.8000  -2.7590  -2.6937  -2.6361  -2.5176  -2.4656  -2.3781  -2.3370
    -2.3030  -2.2273  -2.1911  -2.1241  -2.1049  -1.9794  -1.9757  -1.8376
    -1.7211  -1.6816  -1.6545  -1.6439  -1.4670  -1.4506  -1.4069  -1.4054
    -1.2782  -1.2452  -1.2022  -1.0464  -1.0436  -0.9323  -0.1168  -0.0150
     0.4298   0.6862   0.7024   0.7189   0.8048   0.9468   1.0432   1.1094
     1.2501   1.2778   1.3720   1.6057   1.6363   2.0178   2.0663   2.2755
     2.5154   2.5823   2.6235   2.7135

          k = 0.0000-2.2316 0.0000 ( 92530 PWs)   bands (ev):

  -103.5721-103.5720-103.5689-103.5688-103.1823-103.1823 -69.3186 -69.3186
   -69.3185 -69.3185 -64.1631 -64.1630 -64.1613 -64.1610 -63.9749 -63.9749
   -63.9572 -63.9571 -63.8222 -63.8222 -63.8148 -63.8147 -63.6790 -63.6788
   -63.6360 -63.6359 -63.4792 -63.4791 -35.7828 -35.7826 -35.7823 -35.7821
   -35.7525 -35.7525 -35.7517 -35.7516 -35.6745 -35.6742 -35.6715 -35.6711
   -11.8842 -11.8629 -11.6780 -11.6409 -11.6055 -11.5873 -11.5847 -11.5342
   -11.3982 -11.3940  -6.2381  -6.2113  -6.1970  -6.1615  -5.4552  -5.3517
    -5.0561  -5.0502  -4.8932  -4.8903  -4.3454  -4.3048  -4.1431  -4.1001
    -4.0709  -3.9700  -3.8280  -3.7130  -3.7127  -3.7066  -3.6370  -3.6336
    -3.6236  -3.5807  -3.4137  -3.3916  -3.2395  -3.1844  -3.1501  -3.1227
    -2.7432  -2.7329  -2.6616  -2.6592  -2.5431  -2.4874  -2.3987  -2.3815
    -2.3251  -2.2770  -2.1686  -2.1577  -2.0845  -2.0552  -2.0037  -1.9011
    -1.7395  -1.7219  -1.6098  -1.6051  -1.5206  -1.4899  -1.4837  -1.4701
    -1.3740  -1.3280  -1.2155  -1.1735  -1.0468  -0.9320  -0.1402  -0.0609
     0.4874   0.5389   0.7828   0.7893   0.8283   0.9739   0.9947   1.0845
     1.2627   1.2736   1.4952   1.5227   1.7243   1.8903   2.0937   2.2044
     2.5304   2.5969   2.6887   2.9048

          k =-0.5000 0.0000 0.0000 ( 92454 PWs)   bands (ev):

  -103.5741-103.5740-103.5668-103.5668-103.1823-103.1823 -69.3191 -69.3191
   -69.3189 -69.3189 -64.1627 -64.1626 -64.1611 -64.1611 -63.9859 -63.9859
   -63.9411 -63.9411 -63.8323 -63.8322 -63.8091 -63.8091 -63.6790 -63.6789
   -63.6359 -63.6358 -63.4787 -63.4786 -35.7727 -35.7727 -35.7719 -35.7719
   -35.7372 -35.7372 -35.7368 -35.7368 -35.6780 -35.6780 -35.6733 -35.6733
   -12.8327 -12.8326 -12.2515 -12.2515 -12.0846 -12.0846 -11.7927 -11.7927
   -11.6211 -11.6211  -6.0943  -6.0943  -5.7236  -5.7236  -5.3990  -5.3990
    -5.0302  -5.0302  -4.5974  -4.5974  -4.0409  -4.0408  -3.8942  -3.8942
    -3.7279  -3.7279  -3.6719  -3.6718  -3.6066  -3.6065  -3.3417  -3.3416
    -3.2471  -3.2471  -2.8271  -2.8271  -2.7805  -2.7805  -2.6233  -2.6233
    -2.4687  -2.4687  -2.3342  -2.3342  -2.2546  -2.2545  -2.0978  -2.0977
    -1.9101  -1.9101  -1.8512  -1.8511  -1.6870  -1.6870  -1.6535  -1.6534
    -1.5203  -1.5203  -1.3769  -1.3768  -1.2025  -1.2025  -1.1133  -1.1133
    -0.8507  -0.8507  -0.7347  -0.7347  -0.5896  -0.5896  -0.3094  -0.3094
     0.2231   0.2232   0.6298   0.6299   0.9245   0.9245   1.0319   1.0319
     1.0662   1.0662   1.4955   1.4955   1.9391   1.9391   2.3239   2.3239
     2.4971   2.4971   2.6521   2.6521

          k =-0.5000 0.4463 0.0000 ( 92436 PWs)   bands (ev):

  -103.5739-103.5739-103.5670-103.5669-103.1823-103.1823 -69.3191 -69.3191
   -69.3189 -69.3188 -64.1627 -64.1627 -64.1611 -64.1611 -63.9851 -63.9851
   -63.9422 -63.9422 -63.8316 -63.8315 -63.8095 -63.8094 -63.6790 -63.6789
   -63.6359 -63.6359 -63.4787 -63.4786 -35.7730 -35.7730 -35.7723 -35.7723
   -35.7394 -35.7393 -35.7389 -35.7389 -35.6776 -35.6776 -35.6731 -35.6731
   -12.7637 -12.7637 -12.1957 -12.1957 -12.0543 -12.0543 -11.7619 -11.7619
   -11.5980 -11.5980  -6.0367  -6.0366  -5.6547  -5.6547  -5.3498  -5.3497
    -4.9919  -4.9918  -4.5602  -4.5602  -4.1320  -4.1319  -4.0109  -4.0109
    -3.7837  -3.7836  -3.6788  -3.6788  -3.6110  -3.6109  -3.3811  -3.3811
    -3.2602  -3.2601  -2.9511  -2.9511  -2.9230  -2.9230  -2.7810  -2.7810
    -2.5342  -2.5342  -2.4364  -2.4364  -2.2635  -2.2635  -2.1083  -2.1083
    -1.9677  -1.9677  -1.9394  -1.9393  -1.7571  -1.7571  -1.6858  -1.6857
    -1.5477  -1.5477  -1.3602  -1.3602  -1.2149  -1.2149  -1.0857  -1.0857
    -0.9699  -0.9698  -0.8322  -0.8322  -0.5295  -0.5295  -0.1673  -0.1673
     0.2484   0.2485   0.6526   0.6526   0.8401   0.8402   0.9485   0.9485
     1.1463   1.1463   1.4542   1.4543   1.7883   1.7883   2.0851   2.0852
     2.2368   2.2368   2.9112   2.9112

          k =-0.5000 0.8926 0.0000 ( 92394 PWs)   bands (ev):

  -103.5735-103.5735-103.5674-103.5673-103.1823-103.1823 -69.3190 -69.3190
   -69.3188 -69.3187 -64.1628 -64.1627 -64.1611 -64.1610 -63.9830 -63.9829
   -63.9454 -63.9454 -63.8295 -63.8294 -63.8104 -63.8104 -63.6789 -63.6789
   -63.6360 -63.6359 -63.4787 -63.4786 -35.7743 -35.7743 -35.7737 -35.7736
   -35.7444 -35.7444 -35.7438 -35.7438 -35.6768 -35.6768 -35.6726 -35.6726
   -12.5686 -12.5686 -12.0444 -12.0444 -11.9692 -11.9691 -11.6836 -11.6836
   -11.5361 -11.5361  -5.9089  -5.9088  -5.4795  -5.4795  -5.2579  -5.2579
    -4.9858  -4.9858  -4.5217  -4.5217  -4.3033  -4.3033  -4.2616  -4.2615
    -3.9317  -3.9317  -3.8405  -3.8405  -3.7390  -3.7389  -3.5203  -3.5203
    -3.3918  -3.3918  -3.1824  -3.1824  -3.0488  -3.0488  -2.8870  -2.8870
    -2.7133  -2.7133  -2.5805  -2.5805  -2.3070  -2.3069  -2.2421  -2.2421
    -2.1236  -2.1235  -1.9530  -1.9529  -1.8102  -1.8102  -1.7451  -1.7450
    -1.6198  -1.6198  -1.4862  -1.4862  -1.3050  -1.3049  -1.1719  -1.1719
    -1.0785  -1.0785  -0.8182  -0.8182  -0.6710  -0.6710   0.0655   0.0655
     0.3355   0.3355   0.5748   0.5748   0.8441   0.8441   0.9644   0.9644
     1.0806   1.0806   1.3645   1.3645   1.7558   1.7558   1.9192   1.9192
     2.1352   2.1352   3.2843   3.2843

          k =-0.5000 1.3389 0.0000 ( 92424 PWs)   bands (ev):

  -103.5730-103.5729-103.5680-103.5679-103.1823-103.1823 -69.3188 -69.3188
   -69.3186 -69.3186 -64.1629 -64.1628 -64.1611 -64.1610 -63.9799 -63.9799
   -63.9502 -63.9502 -63.8265 -63.8265 -63.8119 -63.8119 -63.6789 -63.6788
   -63.6360 -63.6359 -63.4789 -63.4788 -35.7773 -35.7773 -35.7767 -35.7767
   -35.7492 -35.7492 -35.7484 -35.7484 -35.6757 -35.6757 -35.6719 -35.6719
   -12.2867 -12.2866 -11.8770 -11.8769 -11.8179 -11.8179 -11.5950 -11.5949
   -11.4605 -11.4605  -5.9032  -5.9032  -5.4799  -5.4799  -5.3042  -5.3042
    -5.0986  -5.0985  -4.6096  -4.6096  -4.5356  -4.5356  -4.2145  -4.2145
    -4.0865  -4.0865  -4.0262  -4.0262  -3.7887  -3.7886  -3.6691  -3.6691
    -3.3985  -3.3985  -3.2302  -3.2302  -3.1739  -3.1738  -2.9738  -2.9738
    -2.7906  -2.7906  -2.6790  -2.6790  -2.4285  -2.4285  -2.2889  -2.2888
    -2.2580  -2.2579  -2.0805  -2.0804  -1.8724  -1.8724  -1.7986  -1.7986
    -1.6786  -1.6786  -1.6301  -1.6301  -1.3430  -1.3430  -1.3094  -1.3093
    -1.1461  -1.1461  -1.0086  -1.0086  -0.8588  -0.8588   0.0413   0.0414
     0.5115   0.5115   0.7128   0.7128   0.8010   0.8011   0.9572   0.9572
     1.1849   1.1850   1.3950   1.3950   1.9410   1.9411   2.0308   2.0309
     2.1423   2.1423   2.9711   2.9712

          k =-0.5000 1.7852 0.0000 ( 92528 PWs)   bands (ev):

  -103.5724-103.5723-103.5686-103.5685-103.1823-103.1823 -69.3187 -69.3187
   -69.3185 -69.3185 -64.1631 -64.1630 -64.1612 -64.1612 -63.9766 -63.9765
   -63.9550 -63.9549 -63.8236 -63.8236 -63.8138 -63.8137 -63.6790 -63.6789
   -63.6360 -63.6359 -63.4791 -63.4790 -35.7810 -35.7810 -35.7804 -35.7804
   -35.7518 -35.7518 -35.7509 -35.7509 -35.6747 -35.6747 -35.6715 -35.6714
   -12.0014 -12.0013 -11.7585 -11.7585 -11.6444 -11.6444 -11.5442 -11.5442
   -11.4116 -11.4116  -6.1656  -6.1656  -5.8846  -5.8845  -5.3477  -5.3477
    -5.0880  -5.0880  -4.8118  -4.8117  -4.4236  -4.4236  -4.2556  -4.2556
    -4.0137  -4.0137  -3.8726  -3.8726  -3.7363  -3.7362  -3.6293  -3.6293
    -3.5168  -3.5168  -3.3591  -3.3591  -3.1572  -3.1571  -3.0214  -3.0214
    -2.8643  -2.8643  -2.6454  -2.6453  -2.5561  -2.5560  -2.3894  -2.3894
    -2.2518  -2.2518  -2.1579  -2.1579  -1.9995  -1.9995  -1.8726  -1.8726
    -1.7208  -1.7208  -1.6488  -1.6487  -1.4788  -1.4788  -1.3707  -1.3707
    -1.2846  -1.2846  -1.1606  -1.1606  -0.9637  -0.9637  -0.0643  -0.0642
     0.5387   0.5387   0.8227   0.8228   0.9672   0.9672   0.9953   0.9953
     1.2000   1.2001   1.4291   1.4292   1.7890   1.7890   2.3197   2.3197
     2.3670   2.3671   2.6802   2.6803

          k =-0.5000-2.2316 0.0000 ( 92472 PWs)   bands (ev):

  -103.5721-103.5720-103.5689-103.5688-103.1823-103.1823 -69.3186 -69.3186
   -69.3185 -69.3185 -64.1630 -64.1630 -64.1612 -64.1611 -63.9749 -63.9748
   -63.9572 -63.9571 -63.8221 -63.8221 -63.8147 -63.8146 -63.6789 -63.6788
   -63.6359 -63.6359 -63.4791 -63.4791 -35.7827 -35.7827 -35.7821 -35.7821
   -35.7525 -35.7525 -35.7516 -35.7516 -35.6744 -35.6743 -35.6713 -35.6713
   -11.8731 -11.8731 -11.6694 -11.6693 -11.5880 -11.5880 -11.5583 -11.5583
   -11.3961 -11.3961  -6.3226  -6.3226  -6.0447  -6.0447  -5.4404  -5.4403
    -5.0236  -5.0236  -4.9495  -4.9495  -4.2691  -4.2691  -4.2182  -4.2182
    -3.9807  -3.9806  -3.7353  -3.7353  -3.7117  -3.7117  -3.6669  -3.6669
    -3.5647  -3.5647  -3.4666  -3.4666  -3.1304  -3.1304  -2.9654  -2.9654
    -2.9237  -2.9237  -2.6388  -2.6388  -2.5803  -2.5803  -2.4196  -2.4196
    -2.3104  -2.3104  -2.1067  -2.1067  -2.0488  -2.0487  -1.9383  -1.9383
    -1.7480  -1.7480  -1.6146  -1.6146  -1.5344  -1.5344  -1.4271  -1.4271
    -1.3831  -1.3831  -1.1991  -1.1991  -0.9855  -0.9855  -0.0953  -0.0953
     0.5295   0.5295   0.8314   0.8314   0.8942   0.8943   1.0277   1.0277
     1.2735   1.2736   1.5256   1.5256   1.6763   1.6763   2.2804   2.2804
     2.3978   2.3978   2.8494   2.8495

     the Fermi energy is    -0.4290 ev

!    total energy              =   -9109.80856597 Ry
     total all-electron energy =     -9109.808566 Ry
     estimated scf accuracy    <          2.0E-09 Ry
     smearing contrib. (-TS)   =      -0.00000000 Ry
     internal energy E=F+TS    =   -9109.80856597 Ry

     The total energy is F=E-TS. E is the sum of the following terms:
     one-electron contribution =  -15398.21578833 Ry
     hartree contribution      =    7555.03765641 Ry
     xc contribution           =    -364.07061721 Ry
     ewald contribution        =    5365.04448664 Ry
     one-center paw contrib.   =   -6267.60430348 Ry

     convergence has been achieved in  19 iterations

     negative rho (up, down):  6.479E-02 0.000E+00

     Forces acting on atoms (cartesian axes, Ry/au):

     atom    1 type  1   force =    -0.00930193   -0.02341406    0.01226682
     atom    2 type  1   force =    -0.00929679    0.02341770   -0.01225751
     atom    3 type  1   force =     0.00931659   -0.02341966    0.01228047
     atom    4 type  1   force =     0.00927569    0.02342145   -0.01226725
     atom    5 type  2   force =     0.00569131   -0.02600002    0.01101626
     atom    6 type  2   force =     0.00572982    0.02599163   -0.01101935
     atom    7 type  2   force =    -0.00564663   -0.02599338    0.01102759
     atom    8 type  2   force =    -0.00566731    0.02599046   -0.01099646
     atom    9 type  2   force =     0.00000253   -0.01114314    0.01005873
     atom   10 type  2   force =     0.00001658    0.01114430   -0.01005778
     atom   11 type  3   force =    -0.00404718    0.01804089    0.02471000
     atom   12 type  3   force =    -0.00404543   -0.01803911   -0.02472089
     atom   13 type  3   force =     0.00386951   -0.01374196    0.01981983
     atom   14 type  3   force =     0.00386784    0.01374093   -0.01982429
     atom   15 type  3   force =     0.00406461    0.01803937    0.02471217
     atom   16 type  3   force =     0.00406642   -0.01803648   -0.02472429
     atom   17 type  3   force =    -0.00390869   -0.01374145    0.01981757
     atom   18 type  3   force =    -0.00391220    0.01374049   -0.01982837
     atom   19 type  3   force =    -0.00003839   -0.01238122    0.01559505
     atom   20 type  3   force =    -0.00003635    0.01238328   -0.01560830

     Total force =     0.117905     Total SCF correction =     0.000216


     Computing stress (Cartesian axis) and pressure


     negative rho (up, down):  6.479E-02 0.000E+00
          total   stress  (Ry/bohr**3)                   (kbar)     P=      -16.65
  -0.00005083  -0.00000000   0.00000000           -7.48       -0.00        0.00
  -0.00000000  -0.00018173   0.00001537           -0.00      -26.73        2.26
   0.00000000   0.00001537  -0.00010707            0.00        2.26      -15.75

     Energy error            =      1.7E-02 Ry
     Gradient error          =      2.6E-02 Ry/Bohr

     number of scf cycles    =   2
     number of bfgs steps    =   1

     energy             old  =   -9109.7914927356 Ry
     energy             new  =   -9109.8085659698 Ry

     CASE: energy            _new < energy            _old


     WARNING: bfgs curvature condition failed, Theta= 0.918
     new trust radius        =       0.0382567958 bohr
     new conv_thr            =       0.0000000026 Ry


ATOMIC_POSITIONS (angstrom)
Ta              15.3791362515        0.8855219354       12.4599456816
Ta               6.5588382959        2.7741615310       12.5758967899
Ta               2.2778674077        0.8855132546       12.4597930067
Ta              11.0981608313        2.7741722150       12.5760313369
Ni              12.8708281695        0.8813670917       11.7748588158
Ni               4.0505199625        2.7783362695       13.2609681433
Ni               4.7861142968        0.8813735167       11.7746055381
Ni              13.6064017244        2.7783380694       13.2612008923
Ni               8.8283356577        0.9016805007       12.3798179889
Ni               0.0081055353        2.7580143445       12.6560090157
Te              14.2085522567        2.7680711375       10.5657440896
Te               5.3882364598        0.8916208026       14.4700843257
Te              10.6007861589        0.8979919072       10.5453545904
Te               1.7805023855        2.7616973832       14.4904799806
Te               3.4482044046        2.7680697945       10.5655201607
Te              12.2685040749        0.8916218877       14.4703052066
Te               7.0562166517        0.8979918701       10.5451902853
Te              15.8764942507        2.7616975724       14.4906509209
Te               0.0082485884        0.9001264550       10.8555364923
Te               8.8285089993        2.7595649151       14.1802577382



     Writing config-only to output data dir /ddn/data/physics/eamoujaes/2D-Ta2Ni3Te5/ELASTIC/C22/OUT/ta2ni3te5.save/ :
     XML data file
     NEW-OLD atomic charge density approx. for the potential

     negative rho (up, down):  6.574E-02 0.000E+00

     total cpu time spent up to now is     1990.1 secs

     Self-consistent Calculation

     iteration #  1     ecut=    60.00 Ry     beta= 0.20
     Davidson diagonalization with overlap
     c_bands:  1 eigenvalues not converged
     ethr =  1.00E-06,  avg # of iterations =  9.3

     negative rho (up, down):  6.554E-02 0.000E+00

     total cpu time spent up to now is     2031.9 secs

     total energy              =   -9109.81600946 Ry
     estimated scf accuracy    <       0.02252800 Ry

     iteration #  2     ecut=    60.00 Ry     beta= 0.20
     Davidson diagonalization with overlap
     ethr =  1.02E-05,  avg # of iterations =  3.3

     negative rho (up, down):  6.552E-02 0.000E+00

     total cpu time spent up to now is     2069.7 secs

     total energy              =   -9109.81649924 Ry
     estimated scf accuracy    <       0.15343609 Ry

     iteration #  3     ecut=    60.00 Ry     beta= 0.20
     Davidson diagonalization with overlap
     ethr =  1.02E-05,  avg # of iterations =  2.0

     negative rho (up, down):  6.549E-02 0.000E+00

     total cpu time spent up to now is     2107.3 secs

     total energy              =   -9109.82413233 Ry
     estimated scf accuracy    <       0.00643554 Ry

     iteration #  4     ecut=    60.00 Ry     beta= 0.20
     Davidson diagonalization with overlap
     ethr =  2.93E-06,  avg # of iterations =  1.3

     negative rho (up, down):  6.538E-02 0.000E+00

     total cpu time spent up to now is     2144.6 secs

     total energy              =   -9109.82435636 Ry
     estimated scf accuracy    <       0.00158594 Ry

     iteration #  5     ecut=    60.00 Ry     beta= 0.20
     Davidson diagonalization with overlap
     ethr =  7.21E-07,  avg # of iterations =  2.0

     negative rho (up, down):  6.524E-02 0.000E+00

     total cpu time spent up to now is     2182.4 secs

     total energy              =   -9109.82432359 Ry
     estimated scf accuracy    <       0.00040718 Ry

     iteration #  6     ecut=    60.00 Ry     beta= 0.20
     Davidson diagonalization with overlap
     ethr =  1.85E-07,  avg # of iterations =  2.1

     negative rho (up, down):  6.516E-02 0.000E+00

     total cpu time spent up to now is     2219.9 secs

     total energy              =   -9109.82434978 Ry
     estimated scf accuracy    <       0.00014662 Ry

     iteration #  7     ecut=    60.00 Ry     beta= 0.20
     Davidson diagonalization with overlap
     ethr =  6.66E-08,  avg # of iterations =  2.0

     negative rho (up, down):  6.512E-02 0.000E+00

     total cpu time spent up to now is     2257.4 secs

     total energy              =   -9109.82435124 Ry
     estimated scf accuracy    <       0.00025542 Ry

     iteration #  8     ecut=    60.00 Ry     beta= 0.20
     Davidson diagonalization with overlap
     ethr =  6.66E-08,  avg # of iterations =  1.0

     negative rho (up, down):  6.506E-02 0.000E+00

     total cpu time spent up to now is     2294.9 secs

     total energy              =   -9109.82436209 Ry
     estimated scf accuracy    <       0.00004158 Ry

     iteration #  9     ecut=    60.00 Ry     beta= 0.20
     Davidson diagonalization with overlap
     ethr =  1.89E-08,  avg # of iterations =  2.0

     negative rho (up, down):  6.503E-02 0.000E+00

     total cpu time spent up to now is     2332.6 secs

     total energy              =   -9109.82436601 Ry
     estimated scf accuracy    <       0.00001521 Ry

     iteration # 10     ecut=    60.00 Ry     beta= 0.20
     Davidson diagonalization with overlap
     ethr =  6.91E-09,  avg # of iterations =  2.0

     negative rho (up, down):  6.501E-02 0.000E+00

     total cpu time spent up to now is     2370.2 secs

     total energy              =   -9109.82436759 Ry
     estimated scf accuracy    <       0.00000432 Ry

     iteration # 11     ecut=    60.00 Ry     beta= 0.20
     Davidson diagonalization with overlap
     ethr =  1.96E-09,  avg # of iterations =  2.1

     negative rho (up, down):  6.500E-02 0.000E+00

     total cpu time spent up to now is     2408.2 secs

     total energy              =   -9109.82436853 Ry
     estimated scf accuracy    <       0.00000179 Ry

     iteration # 12     ecut=    60.00 Ry     beta= 0.20
     Davidson diagonalization with overlap
     ethr =  8.14E-10,  avg # of iterations =  2.2

     negative rho (up, down):  6.501E-02 0.000E+00

     total cpu time spent up to now is     2445.9 secs

     total energy              =   -9109.82436845 Ry
     estimated scf accuracy    <       0.00000132 Ry

     iteration # 13     ecut=    60.00 Ry     beta= 0.20
     Davidson diagonalization with overlap
     ethr =  6.00E-10,  avg # of iterations =  1.4

     negative rho (up, down):  6.501E-02 0.000E+00

     total cpu time spent up to now is     2483.2 secs

     total energy              =   -9109.82436863 Ry
     estimated scf accuracy    <       0.00000034 Ry

     iteration # 14     ecut=    60.00 Ry     beta= 0.20
     Davidson diagonalization with overlap
     ethr =  1.53E-10,  avg # of iterations =  2.5

     negative rho (up, down):  6.500E-02 0.000E+00

     total cpu time spent up to now is     2520.9 secs

     total energy              =   -9109.82436877 Ry
     estimated scf accuracy    <       0.00000025 Ry

     iteration # 15     ecut=    60.00 Ry     beta= 0.20
     Davidson diagonalization with overlap
     ethr =  1.15E-10,  avg # of iterations =  2.0

     negative rho (up, down):  6.500E-02 0.000E+00

     total cpu time spent up to now is     2558.5 secs

     total energy              =   -9109.82436877 Ry
     estimated scf accuracy    <       0.00000008 Ry

     iteration # 16     ecut=    60.00 Ry     beta= 0.20
     Davidson diagonalization with overlap
     ethr =  3.66E-11,  avg # of iterations =  2.9

     negative rho (up, down):  6.501E-02 0.000E+00

     total cpu time spent up to now is     2596.5 secs

     total energy              =   -9109.82436877 Ry
     estimated scf accuracy    <       0.00000002 Ry

     iteration # 17     ecut=    60.00 Ry     beta= 0.20
     Davidson diagonalization with overlap
     ethr =  8.27E-12,  avg # of iterations =  4.9

     negative rho (up, down):  6.501E-02 0.000E+00

     total cpu time spent up to now is     2634.7 secs

     total energy              =   -9109.82436878 Ry
     estimated scf accuracy    <          9.7E-09 Ry

     iteration # 18     ecut=    60.00 Ry     beta= 0.20
     Davidson diagonalization with overlap
     ethr =  4.43E-12,  avg # of iterations =  2.0

     negative rho (up, down):  6.501E-02 0.000E+00

     total cpu time spent up to now is     2672.3 secs

     total energy              =   -9109.82436878 Ry
     estimated scf accuracy    <       0.00000002 Ry

     iteration # 19     ecut=    60.00 Ry     beta= 0.20
     Davidson diagonalization with overlap
     ethr =  4.43E-12,  avg # of iterations =  2.0

     negative rho (up, down):  6.501E-02 0.000E+00

     total cpu time spent up to now is     2710.6 secs

     total energy              =   -9109.82436878 Ry
     estimated scf accuracy    <          2.8E-09 Ry

     iteration # 20     ecut=    60.00 Ry     beta= 0.20
     Davidson diagonalization with overlap
     ethr =  1.29E-12,  avg # of iterations =  2.2

     negative rho (up, down):  6.501E-02 0.000E+00

     total cpu time spent up to now is     2747.9 secs

     End of self-consistent calculation

          k = 0.0000 0.0000 0.0000 ( 92397 PWs)   bands (ev):

  -103.5953-103.5953-103.5881-103.5880-103.1831-103.1831 -69.3133 -69.3133
   -69.3130 -69.3130 -64.1857 -64.1853 -64.1845 -64.1843 -64.0106 -64.0105
   -63.9649 -63.9648 -63.8493 -63.8492 -63.8259 -63.8258 -63.6744 -63.6742
   -63.6333 -63.6331 -63.4890 -63.4890 -35.7669 -35.7665 -35.7662 -35.7658
   -35.7360 -35.7360 -35.7357 -35.7357 -35.6765 -35.6734 -35.6730 -35.6699
   -12.9538 -12.6610 -12.5839 -12.1481 -12.0609 -11.9497 -11.8887 -11.8449
   -11.7294 -11.5677  -6.2015  -5.9531  -5.7464  -5.7302  -5.4718  -5.4102
    -5.3608  -4.8022  -4.6665  -4.3114  -4.1974  -4.0670  -4.0581  -3.8872
    -3.8567  -3.8297  -3.7532  -3.7295  -3.7130  -3.6924  -3.3723  -3.2131
    -3.0975  -3.0958  -3.0322  -2.8420  -2.8009  -2.7427  -2.6441  -2.5825
    -2.5065  -2.4337  -2.4287  -2.3033  -2.2748  -2.2356  -2.1730  -2.0547
    -2.0387  -2.0266  -1.8326  -1.8089  -1.7591  -1.7373  -1.6627  -1.5661
    -1.5549  -1.5515  -1.4127  -1.3441  -1.2179  -1.2118  -1.1519  -1.0810
    -0.9408  -0.8288  -0.7460  -0.7252  -0.6179  -0.5394  -0.3074  -0.3009
     0.0786   0.3446   0.5239   0.7016   0.8752   0.9009   0.9109   1.1448
     1.2269   1.2382   1.4568   1.5066   1.8314   2.1406   2.3792   2.3969
     2.4802   2.5106   2.6534   2.7586

          k = 0.0000 0.4463 0.0000 ( 92409 PWs)   bands (ev):

  -103.5952-103.5952-103.5882-103.5882-103.1831-103.1831 -69.3132 -69.3132
   -69.3130 -69.3130 -64.1857 -64.1855 -64.1845 -64.1842 -64.0097 -64.0097
   -63.9662 -63.9660 -63.8485 -63.8485 -63.8263 -63.8262 -63.6745 -63.6742
   -63.6333 -63.6332 -63.4890 -63.4890 -35.7670 -35.7667 -35.7663 -35.7660
   -35.7383 -35.7382 -35.7380 -35.7379 -35.6761 -35.6732 -35.6727 -35.6697
   -12.8824 -12.5914 -12.5249 -12.1160 -12.0135 -11.9248 -11.8525 -11.8139
   -11.6990 -11.5512  -6.1465  -5.9016  -5.6830  -5.6581  -5.4322  -5.3608
    -5.2862  -4.7495  -4.6368  -4.3022  -4.2122  -4.1573  -4.1048  -4.0575
    -4.0565  -3.8935  -3.8140  -3.7580  -3.6162  -3.5469  -3.4993  -3.2818
    -3.2078  -3.0921  -3.0288  -3.0050  -2.9679  -2.9206  -2.8198  -2.6642
    -2.6204  -2.5180  -2.4721  -2.3868  -2.3439  -2.2076  -2.1864  -2.1128
    -2.0240  -1.9920  -1.9544  -1.9319  -1.8410  -1.8025  -1.6880  -1.6582
    -1.5860  -1.5735  -1.3493  -1.2938  -1.2914  -1.2526  -1.1968  -1.0085
    -0.9432  -0.9029  -0.8243  -0.7314  -0.6495  -0.6148  -0.2198  -0.0975
     0.1482   0.3094   0.5754   0.6714   0.7491   0.8891   1.0178   1.0962
     1.1310   1.2338   1.3738   1.4764   1.8884   1.9272   2.0763   2.1129
     2.2667   2.2924   2.7941   3.0780

          k = 0.0000 0.8926 0.0000 ( 92337 PWs)   bands (ev):

  -103.5947-103.5947-103.5887-103.5887-103.1831-103.1831 -69.3131 -69.3131
   -69.3129 -69.3129 -64.1857 -64.1856 -64.1845 -64.1843 -64.0072 -64.0071
   -63.9697 -63.9696 -63.8463 -63.8462 -63.8273 -63.8272 -63.6745 -63.6742
   -63.6333 -63.6332 -63.4890 -63.4889 -35.7679 -35.7676 -35.7673 -35.7670
   -35.7439 -35.7437 -35.7433 -35.7432 -35.6751 -35.6726 -35.6718 -35.6693
   -12.6796 -12.3951 -12.3620 -12.0254 -11.8930 -11.8642 -11.7464 -11.7270
   -11.6228 -11.5089  -6.0288  -5.7918  -5.5343  -5.5050  -5.3372  -5.2476
    -5.1042  -4.8322  -4.6505  -4.4394  -4.3785  -4.3244  -4.2345  -4.2189
    -4.1585  -4.0243  -4.0227  -3.8629  -3.7781  -3.7662  -3.4905  -3.4678
    -3.4601  -3.3069  -3.2305  -3.1750  -3.1469  -2.9836  -2.8714  -2.8546
    -2.7126  -2.7022  -2.6398  -2.5189  -2.4141  -2.3157  -2.2371  -2.2363
    -2.1959  -2.1075  -2.0066  -1.9287  -1.8562  -1.8419  -1.7504  -1.7376
    -1.7100  -1.6662  -1.6268  -1.2842  -1.2804  -1.2174  -1.2084  -1.1555
    -1.0494  -1.0247  -0.9964  -0.7986  -0.7732  -0.6890   0.0463   0.1283
     0.1832   0.5256   0.5526   0.6059   0.7400   0.8435   0.8456   0.9024
     1.2025   1.2306   1.3407   1.5470   1.6252   1.8864   1.9241   1.9875
     2.1013   2.2325   3.2665   3.3615

          k = 0.0000 1.3389 0.0000 ( 92488 PWs)   bands (ev):

  -103.5940-103.5940-103.5894-103.5893-103.1831-103.1831 -69.3129 -69.3129
   -69.3128 -69.3128 -64.1859 -64.1858 -64.1846 -64.1845 -64.0036 -64.0036
   -63.9752 -63.9751 -63.8433 -63.8431 -63.8290 -63.8290 -63.6745 -63.6743
   -63.6334 -63.6333 -63.4893 -63.4892 -35.7707 -35.7705 -35.7702 -35.7700
   -35.7490 -35.7488 -35.7482 -35.7481 -35.6738 -35.6719 -35.6707 -35.6688
   -12.3820 -12.1428 -12.1122 -11.8899 -11.7966 -11.7538 -11.6154 -11.5913
   -11.5474 -11.4606  -6.0106  -5.8125  -5.6201  -5.6187  -5.2617  -5.1843
    -5.1654  -4.9304  -4.8697  -4.6253  -4.5479  -4.5312  -4.2814  -4.2529
    -4.2333  -4.0929  -4.0690  -3.9903  -3.8396  -3.7631  -3.6576  -3.6230
    -3.4964  -3.4131  -3.2958  -3.2855  -3.2533  -3.0837  -3.0029  -2.8511
    -2.8223  -2.7935  -2.7209  -2.6420  -2.5054  -2.3748  -2.3378  -2.3239
    -2.2839  -2.2216  -2.1254  -2.0671  -1.9866  -1.8870  -1.8557  -1.7682
    -1.7637  -1.6965  -1.6723  -1.5319  -1.3715  -1.3357  -1.3188  -1.2477
    -1.1871  -1.1673  -1.0612  -0.9322  -0.8775  -0.8594  -0.0004   0.1117
     0.3091   0.5833   0.6573   0.7302   0.8478   0.8542   0.8642   0.9213
     1.1520   1.3411   1.3848   1.6643   1.7218   1.8329   2.0350   2.1705
     2.2481   2.3119   2.9207   3.0394

          k = 0.0000 1.7852 0.0000 ( 92560 PWs)   bands (ev):

  -103.5933-103.5933-103.5901-103.5901-103.1831-103.1831 -69.3128 -69.3128
   -69.3127 -69.3127 -64.1861 -64.1859 -64.1847 -64.1846 -63.9992 -63.9992
   -63.9810 -63.9810 -63.8400 -63.8399 -63.8312 -63.8311 -63.6745 -63.6744
   -63.6334 -63.6333 -63.4895 -63.4894 -35.7747 -35.7745 -35.7742 -35.7740
   -35.7514 -35.7513 -35.7505 -35.7504 -35.6725 -35.6716 -35.6696 -35.6686
   -12.0654 -11.9554 -11.8221 -11.7446 -11.7257 -11.6453 -11.5433 -11.5411
   -11.4627 -11.4295  -6.1698  -6.1054  -6.0436  -6.0390  -5.3658  -5.2443
    -5.1470  -5.0876  -4.8856  -4.8011  -4.4863  -4.4228  -4.3672  -4.1445
    -4.0723  -4.0108  -3.8898  -3.8225  -3.8144  -3.7770  -3.6378  -3.5778
    -3.5578  -3.4919  -3.4631  -3.4290  -3.2151  -3.2013  -3.0958  -3.0382
[...]
     1.2067   1.2411   1.3969   1.6091   1.6955   1.9771   1.9826   2.0671
     2.1798   2.3840   3.3729   3.4677

          k = 0.0000 1.3389 0.0000 ( 92488 PWs)   bands (ev):

  -103.6805-103.6805-103.6757-103.6757-103.2009-103.2009 -69.2822 -69.2822
   -69.2821 -69.2820 -64.2707 -64.2707 -64.2702 -64.2700 -64.1087 -64.1087
   -64.0784 -64.0783 -63.9191 -63.9189 -63.9051 -63.9050 -63.6758 -63.6755
   -63.6270 -63.6269 -63.5516 -63.5516 -35.7435 -35.7434 -35.7431 -35.7431
   -35.7413 -35.7411 -35.7403 -35.7401 -35.6647 -35.6625 -35.6620 -35.6597
   -12.5063 -12.2740 -12.2156 -11.9632 -11.8667 -11.8655 -11.7186 -11.6787
   -11.6497 -11.5499  -6.1231  -5.9396  -5.8010  -5.7725  -5.3910  -5.3441
    -5.2940  -5.0708  -4.9934  -4.7660  -4.6377  -4.6186  -4.3704  -4.3388
    -4.3344  -4.2251  -4.1447  -4.0416  -3.9088  -3.8476  -3.7704  -3.7550
    -3.6245  -3.4697  -3.3816  -3.3743  -3.2827  -3.1473  -3.1106  -2.9698
    -2.8814  -2.8791  -2.8583  -2.7113  -2.6134  -2.4564  -2.4452  -2.4444
    -2.3734  -2.2699  -2.2586  -2.1197  -2.0947  -1.9454  -1.9224  -1.8506
    -1.8330  -1.7576  -1.7232  -1.5534  -1.3991  -1.3308  -1.3271  -1.2751
    -1.2341  -1.1630  -1.0871  -0.9531  -0.8832  -0.8623   0.0008   0.0989
     0.3296   0.5964   0.7034   0.7724   0.8672   0.9019   0.9068   0.9250
     1.1654   1.3287   1.4719   1.7252   1.7541   1.8712   2.1471   2.2717
     2.3581   2.3998   3.0343   3.1643

          k = 0.0000 1.7852 0.0000 ( 92560 PWs)   bands (ev):

  -103.6794-103.6794-103.6769-103.6769-103.2009-103.2009 -69.2821 -69.2821
   -69.2820 -69.2820 -64.2709 -64.2708 -64.2703 -64.2703 -64.1022 -64.1022
   -64.0864 -64.0863 -63.9151 -63.9149 -63.9078 -63.9077 -63.6758 -63.6756
   -63.6269 -63.6269 -63.5519 -63.5518 -35.7509 -35.7509 -35.7506 -35.7505
   -35.7406 -35.7405 -35.7396 -35.7395 -35.6632 -35.6621 -35.6606 -35.6595
   -12.1578 -12.0037 -11.9711 -11.8343 -11.8214 -11.7712 -11.6556 -11.6418
   -11.5474 -11.5179  -6.3247  -6.2686  -6.2352  -6.2116  -5.4780  -5.3945
    -5.2861  -5.2714  -4.9756  -4.9380  -4.5526  -4.4784  -4.4690  -4.1951
    -4.1200  -4.0745  -3.9811  -3.8720  -3.8462  -3.8151  -3.7431  -3.6262
    -3.6204  -3.6024  -3.5311  -3.4462  -3.3384  -3.3018  -3.1841  -3.1463
    -2.9270  -2.9039  -2.8657  -2.7404  -2.6493  -2.5857  -2.5576  -2.5394
    -2.3729  -2.3444  -2.2708  -2.2367  -2.2315  -2.0872  -2.0691  -1.9368
    -1.7977  -1.7365  -1.7284  -1.7215  -1.5192  -1.4848  -1.4661  -1.4329
    -1.3380  -1.2929  -1.2920  -1.0345  -0.9803  -0.9543  -0.1027  -0.0342
     0.4524   0.6890   0.7458   0.8296   0.8710   0.9221   1.0278   1.0654
     1.2486   1.2667   1.5211   1.6314   1.7226   2.0651   2.0962   2.3905
     2.6769   2.7084   2.8361   2.8499

          k = 0.0000-2.2316 0.0000 ( 92530 PWs)   bands (ev):

  -103.6782-103.6782-103.6781-103.6781-103.2009-103.2009 -69.2820 -69.2820
   -69.2820 -69.2820 -64.2708 -64.2707 -64.2704 -64.2703 -64.0952 -64.0951
   -64.0939 -64.0938 -63.9114 -63.9113 -63.9109 -63.9108 -63.6756 -63.6756
   -63.6269 -63.6269 -63.5519 -63.5519 -35.7539 -35.7539 -35.7535 -35.7534
   -35.7402 -35.7402 -35.7392 -35.7392 -35.6624 -35.6623 -35.6598 -35.6597
   -11.9278 -11.9252 -11.8002 -11.7965 -11.7839 -11.7795 -11.6712 -11.6680
   -11.5072 -11.5066  -6.4338  -6.4224  -6.4191  -6.4190  -5.5715  -5.5640
    -5.1987  -5.1919  -5.0902  -5.0865  -4.3552  -4.3534  -4.2433  -4.2328
    -4.1057  -4.1003  -3.8012  -3.7948  -3.7362  -3.7267  -3.6699  -3.6638
    -3.6290  -3.6266  -3.5629  -3.5543  -3.3423  -3.3410  -3.3227  -3.3180
    -2.8708  -2.8705  -2.8163  -2.8150  -2.6510  -2.6451  -2.5921  -2.5837
    -2.4196  -2.4126  -2.2356  -2.2324  -2.1868  -2.1826  -2.0562  -2.0446
    -1.7977  -1.7953  -1.6837  -1.6809  -1.5629  -1.5532  -1.5520  -1.5512
    -1.4463  -1.4425  -1.1997  -1.1985  -0.9585  -0.9548  -0.1038  -0.1013
     0.5155   0.5259   0.8655   0.8655   0.9429   0.9445   0.9661   0.9673
     1.2090   1.2104   1.6601   1.6757   1.8665   1.8774   2.1857   2.1922
     2.7246   2.7367   2.9429   2.9469

          k =-0.5000 0.0000 0.0000 ( 92454 PWs)   bands (ev):

  -103.6822-103.6822-103.6740-103.6740-103.2009-103.2009 -69.2826 -69.2826
   -69.2823 -69.2823 -64.2705 -64.2705 -64.2696 -64.2696 -64.1178 -64.1178
   -64.0659 -64.0659 -63.9259 -63.9259 -63.9015 -63.9015 -63.6757 -63.6757
   -63.6269 -63.6268 -63.5513 -63.5513 -35.7443 -35.7443 -35.7432 -35.7432
   -35.7226 -35.7226 -35.7224 -35.7224 -35.6670 -35.6670 -35.6620 -35.6620
   -13.0224 -13.0223 -12.4109 -12.4109 -12.1431 -12.1431 -11.8898 -11.8898
   -11.7333 -11.7333  -6.1700  -6.1700  -5.8623  -5.8622  -5.4734  -5.4734
    -5.1799  -5.1799  -4.7510  -4.7510  -4.2686  -4.2686  -4.0073  -4.0073
    -3.9497  -3.9497  -3.9073  -3.9073  -3.7320  -3.7320  -3.4690  -3.4689
    -3.4245  -3.4245  -2.9787  -2.9787  -2.8889  -2.8889  -2.7533  -2.7533
    -2.5047  -2.5047  -2.4502  -2.4502  -2.3158  -2.3158  -2.2667  -2.2667
    -1.9516  -1.9515  -1.9018  -1.9017  -1.8658  -1.8658  -1.6696  -1.6696
    -1.5965  -1.5965  -1.2997  -1.2997  -1.2966  -1.2965  -1.1011  -1.1011
    -0.8528  -0.8528  -0.7809  -0.7809  -0.6053  -0.6053  -0.2545  -0.2545
     0.1374   0.1374   0.6857   0.6857   0.9198   0.9198   1.0506   1.0506
     1.2509   1.2509   1.5416   1.5416   2.0468   2.0469   2.5590   2.5590
     2.7516   2.7516   2.8236   2.8237

          k =-0.5000 0.4463 0.0000 ( 92436 PWs)   bands (ev):

  -103.6820-103.6820-103.6742-103.6742-103.2009-103.2009 -69.2825 -69.2825
   -69.2823 -69.2823 -64.2706 -64.2706 -64.2696 -64.2696 -64.1167 -64.1167
   -64.0674 -64.0674 -63.9250 -63.9250 -63.9019 -63.9019 -63.6757 -63.6757
   -63.6269 -63.6269 -63.5513 -63.5513 -35.7439 -35.7439 -35.7428 -35.7428
   -35.7256 -35.7256 -35.7254 -35.7254 -35.6665 -35.6665 -35.6618 -35.6618
   -12.9493 -12.9493 -12.3531 -12.3530 -12.1158 -12.1158 -11.8585 -11.8585
   -11.7127 -11.7127  -6.1162  -6.1162  -5.7968  -5.7968  -5.4213  -5.4213
    -5.1527  -5.1527  -4.7208  -4.7207  -4.3328  -4.3328  -4.2401  -4.2401
    -3.9298  -3.9298  -3.8638  -3.8638  -3.7301  -3.7301  -3.5316  -3.5316
    -3.4106  -3.4106  -3.1137  -3.1136  -3.0262  -3.0262  -2.9064  -2.9064
    -2.6453  -2.6453  -2.5168  -2.5168  -2.3950  -2.3950  -2.1511  -2.1511
    -2.0653  -2.0653  -1.9649  -1.9649  -1.9006  -1.9005  -1.7143  -1.7143
    -1.6530  -1.6530  -1.3220  -1.3220  -1.2279  -1.2279  -1.0631  -1.0631
    -1.0100  -1.0100  -0.8705  -0.8704  -0.5439  -0.5439  -0.1749  -0.1749
     0.2518   0.2518   0.7045   0.7045   0.8449   0.8449   1.0127   1.0128
     1.2470   1.2470   1.5011   1.5011   1.9493   1.9493   2.2262   2.2262
     2.3602   2.3603   3.0447   3.0447

          k =-0.5000 0.8926 0.0000 ( 92394 PWs)   bands (ev):

  -103.6814-103.6814-103.6748-103.6748-103.2009-103.2009 -69.2824 -69.2824
   -69.2822 -69.2822 -64.2706 -64.2706 -64.2698 -64.2698 -64.1136 -64.1135
   -64.0717 -64.0716 -63.9225 -63.9225 -63.9031 -63.9031 -63.6756 -63.6756
   -63.6269 -63.6269 -63.5513 -63.5513 -35.7430 -35.7429 -35.7419 -35.7419
   -35.7333 -35.7333 -35.7331 -35.7331 -35.6654 -35.6654 -35.6612 -35.6612
   -12.7416 -12.7416 -12.1953 -12.1953 -12.0408 -12.0408 -11.7808 -11.7807
   -11.6559 -11.6559  -6.0064  -6.0064  -5.6347  -5.6347  -5.3327  -5.3327
    -5.1991  -5.1991  -4.7250  -4.7250  -4.4648  -4.4648  -4.4140  -4.4140
    -4.1032  -4.1032  -3.9752  -3.9752  -3.8380  -3.8380  -3.6715  -3.6715
    -3.5377  -3.5377  -3.3044  -3.3044  -3.1419  -3.1418  -3.0359  -3.0359
    -2.8016  -2.8016  -2.6710  -2.6710  -2.4154  -2.4154  -2.3194  -2.3193
    -2.2235  -2.2235  -2.0531  -2.0531  -1.8898  -1.8898  -1.7872  -1.7872
    -1.7244  -1.7244  -1.5392  -1.5392  -1.3109  -1.3109  -1.1258  -1.1258
    -1.0925  -1.0925  -0.8227  -0.8227  -0.7038  -0.7038   0.0378   0.0378
     0.3594   0.3594   0.6175   0.6175   0.8665   0.8665   1.0575   1.0575
     1.1104   1.1104   1.4351   1.4352   1.8695   1.8695   2.0662   2.0662
     2.1972   2.1972   3.4457   3.4457

          k =-0.5000 1.3389 0.0000 ( 92424 PWs)   bands (ev):

  -103.6805-103.6805-103.6757-103.6757-103.2009-103.2009 -69.2822 -69.2822
   -69.2821 -69.2821 -64.2706 -64.2706 -64.2700 -64.2700 -64.1087 -64.1087
   -64.0783 -64.0783 -63.9190 -63.9190 -63.9050 -63.9050 -63.6756 -63.6756
   -63.6269 -63.6269 -63.5516 -63.5516 -35.7435 -35.7435 -35.7431 -35.7431
   -35.7412 -35.7412 -35.7402 -35.7402 -35.6640 -35.6640 -35.6605 -35.6605
   -12.4368 -12.4368 -11.9973 -11.9973 -11.9293 -11.9293 -11.6987 -11.6987
   -11.5820 -11.5820  -6.0572  -6.0572  -5.6840  -5.6840  -5.4747  -5.4747
    -5.2599  -5.2599  -4.7640  -4.7640  -4.6710  -4.6709  -4.3065  -4.3065
    -4.1872  -4.1871  -4.1687  -4.1687  -3.9076  -3.9076  -3.7692  -3.7692
    -3.4855  -3.4855  -3.3897  -3.3897  -3.1938  -3.1938  -3.1180  -3.1180
    -2.8993  -2.8992  -2.7902  -2.7902  -2.5410  -2.5410  -2.4178  -2.4178
    -2.3577  -2.3577  -2.2004  -2.2004  -1.9721  -1.9721  -1.8802  -1.8802
    -1.7573  -1.7573  -1.6910  -1.6910  -1.3891  -1.3891  -1.2992  -1.2991
    -1.1136  -1.1135  -1.0780  -1.0780  -0.8667  -0.8667   0.0308   0.0308
     0.5648   0.5649   0.7452   0.7453   0.7995   0.7995   1.0014   1.0015
     1.2060   1.2060   1.4849   1.4849   2.0483   2.0484   2.0943   2.0943
     2.2607   2.2608   3.1606   3.1606

          k =-0.5000 1.7852 0.0000 ( 92528 PWs)   bands (ev):

  -103.6794-103.6794-103.6769-103.6769-103.2009-103.2009 -69.2821 -69.2821
   -69.2820 -69.2820 -64.2708 -64.2708 -64.2703 -64.2703 -64.1022 -64.1022
   -64.0863 -64.0863 -63.9150 -63.9150 -63.9077 -63.9077 -63.6757 -63.6757
   -63.6269 -63.6269 -63.5518 -63.5518 -35.7509 -35.7509 -35.7505 -35.7505
   -35.7406 -35.7406 -35.7395 -35.7395 -35.6628 -35.6628 -35.6599 -35.6599
   -12.1091 -12.1091 -11.8773 -11.8773 -11.7865 -11.7865 -11.6600 -11.6600
   -11.5283 -11.5283  -6.3748  -6.3748  -6.1020  -6.1020  -5.5107  -5.5107
    -5.2775  -5.2774  -4.9441  -4.9441  -4.5332  -4.5332  -4.3216  -4.3216
    -4.0943  -4.0943  -3.9290  -3.9289  -3.7972  -3.7972  -3.7707  -3.7707
    -3.5459  -3.5459  -3.4102  -3.4102  -3.2932  -3.2932  -3.1841  -3.1841
    -2.9849  -2.9849  -2.7748  -2.7748  -2.6978  -2.6978  -2.5470  -2.5470
    -2.3686  -2.3686  -2.2607  -2.2607  -2.1196  -2.1196  -1.9673  -1.9673
    -1.7868  -1.7868  -1.7143  -1.7143  -1.5318  -1.5318  -1.3951  -1.3951
    -1.3604  -1.3604  -1.1869  -1.1869  -0.9472  -0.9471  -0.0674  -0.0674
     0.5700   0.5701   0.8601   0.8601   0.9906   0.9906   0.9943   0.9943
     1.1896   1.1896   1.5291   1.5291   1.8508   1.8508   2.3669   2.3669
     2.5249   2.5249   2.8419   2.8419

          k =-0.5000-2.2316 0.0000 ( 92472 PWs)   bands (ev):

  -103.6782-103.6782-103.6781-103.6781-103.2009-103.2009 -69.2820 -69.2820
   -69.2820 -69.2820 -64.2707 -64.2707 -64.2703 -64.2703 -64.0951 -64.0951
   -64.0939 -64.0938 -63.9113 -63.9113 -63.9108 -63.9108 -63.6756 -63.6756
   -63.6268 -63.6268 -63.5519 -63.5519 -35.7539 -35.7539 -35.7534 -35.7534
   -35.7402 -35.7402 -35.7392 -35.7392 -35.6623 -35.6623 -35.6598 -35.6597
   -11.9255 -11.9255 -11.8014 -11.8014 -11.7806 -11.7806 -11.6691 -11.6691
   -11.5065 -11.5065  -6.5440  -6.5440  -6.2653  -6.2653  -5.6101  -5.6101
    -5.1790  -5.1790  -5.1186  -5.1185  -4.3267  -4.3267  -4.2962  -4.2962
    -4.0470  -4.0469  -3.7954  -3.7954  -3.7720  -3.7720  -3.6896  -3.6896
    -3.6592  -3.6592  -3.5383  -3.5383  -3.2131  -3.2131  -3.1883  -3.1883
    -3.0531  -3.0531  -2.8041  -2.8041  -2.6997  -2.6997  -2.6140  -2.6140
    -2.4250  -2.4250  -2.2048  -2.2047  -2.1367  -2.1367  -2.0436  -2.0436
    -1.8117  -1.8117  -1.6863  -1.6862  -1.5962  -1.5962  -1.5080  -1.5080
    -1.4493  -1.4493  -1.2137  -1.2137  -0.9605  -0.9605  -0.0984  -0.0984
     0.5368   0.5369   0.8600   0.8600   0.9259   0.9259   1.0387   1.0387
     1.2044   1.2044   1.6882   1.6882   1.7164   1.7165   2.4324   2.4324
     2.4823   2.4823   2.9793   2.9794

     the Fermi energy is    -0.4144 ev

!    total energy              =   -9109.85601210 Ry
     total all-electron energy =     -9109.856012 Ry
     estimated scf accuracy    <          2.9E-11 Ry
     smearing contrib. (-TS)   =      -0.00000000 Ry
     internal energy E=F+TS    =   -9109.85601210 Ry

     The total energy is F=E-TS. E is the sum of the following terms:
     one-electron contribution =  -15545.47033383 Ry
     hartree contribution      =    7628.29914947 Ry
     xc contribution           =    -364.48506750 Ry
     ewald contribution        =    5439.43064528 Ry
     one-center paw contrib.   =   -6267.63040551 Ry

     convergence has been achieved in  20 iterations

     negative rho (up, down):  6.540E-02 0.000E+00

     Forces acting on atoms (cartesian axes, Ry/au):

     atom    1 type  1   force =    -0.00007001   -0.00042052    0.00041813
     atom    2 type  1   force =    -0.00007347    0.00041956   -0.00041981
     atom    3 type  1   force =     0.00007035   -0.00042270    0.00042173
     atom    4 type  1   force =     0.00006557    0.00042211   -0.00042171
     atom    5 type  2   force =    -0.00040697    0.00047967    0.00018277
     atom    6 type  2   force =    -0.00040314   -0.00048022   -0.00018454
     atom    7 type  2   force =     0.00040419    0.00048288    0.00017277
     atom    8 type  2   force =     0.00040494   -0.00048172   -0.00017111
     atom    9 type  2   force =    -0.00000102    0.00053645    0.00013036
     atom   10 type  2   force =     0.00000536   -0.00053684   -0.00012515
     atom   11 type  3   force =    -0.00006057   -0.00060860    0.00056946
     atom   12 type  3   force =    -0.00005788    0.00060889   -0.00057392
     atom   13 type  3   force =    -0.00029669    0.00060096    0.00029476
     atom   14 type  3   force =    -0.00030378   -0.00060031   -0.00029001
     atom   15 type  3   force =     0.00006103   -0.00061042    0.00056815
     atom   16 type  3   force =     0.00006021    0.00060993   -0.00057120
     atom   17 type  3   force =     0.00030261    0.00060161    0.00030086
     atom   18 type  3   force =     0.00030265   -0.00060083   -0.00029180
     atom   19 type  3   force =    -0.00000316    0.00097840    0.00068412
     atom   20 type  3   force =    -0.00000021   -0.00097830   -0.00069386

     Total force =     0.003402     Total SCF correction =     0.000022


     Computing stress (Cartesian axis) and pressure


     negative rho (up, down):  6.540E-02 0.000E+00
          total   stress  (Ry/bohr**3)                   (kbar)     P=       -9.96
  -0.00003171   0.00000000  -0.00000000           -4.67        0.00       -0.00
   0.00000000  -0.00013384  -0.00000079            0.00      -19.69       -0.12
  -0.00000000  -0.00000079  -0.00003747           -0.00       -0.12       -5.51

     Energy error            =      2.6E-05 Ry
     Gradient error          =      9.8E-04 Ry/Bohr

     bfgs converged in  27 scf cycles and  26 bfgs steps
     (criteria: energy <  1.0E-04 Ry, force <  1.0E-03 Ry/Bohr)

     End of BFGS Geometry Optimization

     Final energy             =   -9109.8560120961 Ry

     File /ddn/data/physics/eamoujaes/2D-Ta2Ni3Te5/ELASTIC/C22/OUT/ta2ni3te5.bfgs deleted, as requested
Begin final coordinates

ATOMIC_POSITIONS (angstrom)
Ta              15.3539406719        0.8489713881       12.5619055182
Ta               6.5337140722        2.8107246622       12.4739249065
Ta               2.3030001604        0.8490109610       12.5620469280
Ta              11.1232416476        2.8106836547       12.4737743013
Ni              12.8974544799        0.8425507751       11.7874662630
Ni               4.0772178340        2.8171453685       13.2483408695
Ni               4.7594176612        0.8425749435       11.7876585285
Ni              13.5796449732        2.8171161536       13.2481460157
Ni               8.8284509561        0.8407085022       12.3280907217
Ni               0.0081785247        2.8189856911       12.7077362108
Te              14.2266941863        2.8240290896       10.6622216645
Te               5.4064301510        0.8356646938       14.3736133726
Te              10.6254862344        0.8309946899       10.5135399029
Te               1.8052614446        2.8286944441       14.5222707877
Te               3.4302602657        2.8240650252       10.6623778556
Te              12.2505130953        0.8356282622       14.3734546428
Te               7.0313191414        0.8310302909       10.5136301028
Te              15.8515538994        2.8286597253       14.5221811460
Te               0.0082672423        0.8384531831       11.0103149487
Te               8.8285157219        2.8212409499       14.0255563130
End final coordinates



     Writing all to output data dir /ddn/data/physics/eamoujaes/2D-Ta2Ni3Te5/ELASTIC/C22/OUT/ta2ni3te5.save/ :
     XML data file, charge density, pseudopotentials, collected wavefunctions
 
     init_run     :     52.02s CPU     63.81s WALL (       1 calls)
     electrons    :  15281.79s CPU  19832.27s WALL (      27 calls)
     update_pot   :    712.51s CPU    911.27s WALL (      26 calls)
     forces       :     50.40s CPU     62.89s WALL (      27 calls)
     stress       :     88.77s CPU    137.72s WALL (      27 calls)

     Called by init_run:
     wfcinit      :      6.24s CPU      8.02s WALL (       1 calls)
     potinit      :     41.23s CPU     50.06s WALL (       1 calls)
     hinit0       :      2.65s CPU      3.04s WALL (       1 calls)

     Called by electrons:
     c_bands      :   1162.82s CPU   1704.61s WALL (     522 calls)
     sum_band     :    396.03s CPU    523.35s WALL (     522 calls)
     v_of_rho     :    184.09s CPU    247.05s WALL (     533 calls)
     newd         :     41.31s CPU     66.49s WALL (     533 calls)
                                       66.49s GPU  (     533 calls)
     PAW_pot      :  14740.58s CPU  18872.07s WALL (     559 calls)
     mix_rho      :     59.77s CPU    106.73s WALL (     522 calls)

     Called by c_bands:
     init_us_2    :    109.11s CPU    137.18s WALL (   13500 calls)
     init_us_2:cp :     93.22s CPU    116.84s WALL (     312 calls)
     init_us_2:gp :     15.55s CPU     19.98s WALL (   13188 calls)
     cegterg      :    667.56s CPU   1124.87s WALL (    6264 calls)

     Called by *egterg:
     cdiaghg      :     55.82s CPU     90.55s WALL (   21973 calls)
                                       90.44s GPU  (   21973 calls)
     h_psi        :    488.34s CPU    830.78s WALL (   22489 calls)
                                      828.93s GPU  (   22489 calls)
     s_psi        :     10.45s CPU     14.22s WALL (   22489 calls)
     g_psi        :      0.06s CPU      7.16s WALL (   16213 calls)
                                        7.02s GPU  (   16213 calls)

     Called by h_psi:
     h_psi:calbec :      0.77s CPU     31.56s WALL (   22489 calls)
                                       31.37s GPU  (   22489 calls)
     vloc_psi     :    440.48s CPU    753.41s WALL (   22489 calls)
                                      753.29s GPU  (   22489 calls)
     add_vuspsi   :      7.70s CPU     38.00s WALL (   22489 calls)
                                       37.76s GPU  (   22489 calls)

     General routines
     calbec       :    285.81s CPU    503.17s WALL (   30685 calls)
     fft          :     51.84s CPU     54.96s WALL (    7592 calls)
                                        2.95s GPU  (    7059 calls)
     ffts         :     15.87s CPU     16.00s WALL (    1055 calls)
                                        0.08s GPU  (     522 calls)
     fftw         :      2.30s CPU    668.13s WALL (  325922 calls)
                                      663.52s GPU  (  325922 calls)
     interpolate  :     77.54s CPU     83.27s WALL (     533 calls)
 
     Parallel routines
 
     PWSCF        :      4h47m CPU      6h15m WALL

 
   This run was terminated on:   5:49: 2  29Jul2024            

=------------------------------------------------------------------------------=
   JOB DONE.
=------------------------------------------------------------------------------=
