 running   16 mpi-ranks, on    1 nodes
 distrk:  each k-point on   16 cores,    1 groups
 distr:  one band on    1 cores,   16 groups
 vasp.6.4.2 20Jul23 (build Nov 14 2023 12:59:38) complex                        
  
 POSCAR found type information on POSCAR TaNiTe
 POSCAR found :  3 types and      20 ions
 Reading from existing POTCAR
 scaLAPACK will be used
 -----------------------------------------------------------------------------
|                                                                             |
|           W    W    AA    RRRRR   N    N  II  N    N   GGGG   !!!           |
|           W    W   A  A   R    R  NN   N  II  NN   N  G    G  !!!           |
|           W    W  A    A  R    R  N N  N  II  N N  N  G       !!!           |
|           W WW W  AAAAAA  RRRRR   N  N N  II  N  N N  G  GGG   !            |
|           WW  WW  A    A  R   R   N   NN  II  N   NN  G    G                |
|           W    W  A    A  R    R  N    N  II  N    N   GGGG   !!!           |
|                                                                             |
|     For optimal performance we recommend to set                             |
|       NCORE = 2 up to number-of-cores-per-socket                            |
|     NCORE specifies how many cores store one orbital (NPAR=cpu/NCORE).      |
|     This setting can greatly improve the performance of VASP for DFT.       |
|     The default, NCORE=1 might be grossly inefficient on modern             |
|     multi-core architectures or massively parallel machines. Do your        |
|     own testing! More info at https://www.vasp.at/wiki/index.php/NCORE      |
|     Unfortunately you need to use the default for GW and RPA                |
|     calculations (for HF NCORE is supported but not extensively tested      |
|     yet).                                                                   |
|                                                                             |
 -----------------------------------------------------------------------------

 Reading from existing POTCAR
 -----------------------------------------------------------------------------
|                                                                             |
|               ----> ADVICE to this user running VASP <----                  |
|                                                                             |
|     You have a (more or less) 'large supercell' and for larger cells it     |
|     might be more efficient to use real-space projection operators.         |
|     Therefore, try LREAL= Auto in the INCAR file.                           |
|     Mind: For very accurate calculation, you might also keep the            |
|     reciprocal projection scheme (i.e. LREAL=.FALSE.).                      |
|                                                                             |
 -----------------------------------------------------------------------------

 LDA part: xc-table for Pade appr. of Perdew
 -----------------------------------------------------------------------------
|                                                                             |
|           W    W    AA    RRRRR   N    N  II  N    N   GGGG   !!!           |
|           W    W   A  A   R    R  NN   N  II  NN   N  G    G  !!!           |
|           W    W  A    A  R    R  N N  N  II  N N  N  G       !!!           |
|           W WW W  AAAAAA  RRRRR   N  N N  II  N  N N  G  GGG   !            |
|           WW  WW  A    A  R   R   N   NN  II  N   NN  G    G                |
|           W    W  A    A  R    R  N    N  II  N    N   GGGG   !!!           |
|                                                                             |
|     The following INCAR tags have not been used:                            |
|     In line 28: STRESSTYPE                                                  |
|     Please check whether the tags are spelled correctly, have the           |
|     correct format, and do not appear multiple times in the file.           |
|                                                                             |
 -----------------------------------------------------------------------------

 POSCAR, INCAR and KPOINTS ok, starting setup
 FFT: planning ... GRIDC
 FFT: planning ... GRID_SOFT
 FFT: planning ... GRID
 WAVECAR not read
 entering main loop
       N       E                     dE             d eps       ncg     rms          rms(c)
DAV:   1     0.712060556995E+03    0.71206E+03   -0.35825E+04  2320   0.717E+02
DAV:   2    -0.391955432491E+02   -0.75126E+03   -0.73045E+03  2976   0.214E+02
DAV:   3    -0.122202655480E+03   -0.83007E+02   -0.81222E+02  2896   0.778E+01
DAV:   4    -0.126475708219E+03   -0.42731E+01   -0.42162E+01  3200   0.171E+01
DAV:   5    -0.126614309982E+03   -0.13860E+00   -0.13830E+00  3152   0.323E+00
DAV:   6    -0.126619916734E+03   -0.56068E-02   -0.56041E-02  3312   0.533E-01
DAV:   7    -0.126620145091E+03   -0.22836E-03   -0.22833E-03  3296   0.987E-02
DAV:   8    -0.126620149956E+03   -0.48653E-05   -0.48649E-05  3264   0.127E-02
DAV:   9    -0.126620150127E+03   -0.17116E-06   -0.17104E-06  2384   0.217E-03
DAV:  10    -0.126620150140E+03   -0.12718E-07   -0.12886E-07  2032   0.807E-04
DAV:  11    -0.126620150144E+03   -0.41819E-08   -0.39197E-08  1712   0.492E-04
DAV:  12    -0.126620150146E+03   -0.18572E-08   -0.18187E-08  1712   0.336E-04    0.393E+01
DAV:  13    -0.123309980956E+03    0.33102E+01   -0.57813E+00  3072   0.204E+01    0.312E+01
DAV:  14    -0.120815524686E+03    0.24945E+01   -0.35890E+00  3056   0.626E+00    0.228E+01
DAV:  15    -0.119934611150E+03    0.88091E+00   -0.14107E+01  2976   0.160E+01    0.613E+00
DAV:  16    -0.119708721423E+03    0.22589E+00   -0.11004E+00  3328   0.606E+00    0.583E+00
DAV:  17    -0.119634969358E+03    0.73752E-01   -0.23333E-01  3568   0.482E+00    0.436E+00
DAV:  18    -0.119553358281E+03    0.81611E-01   -0.13937E-01  2896   0.297E+00    0.255E+00
DAV:  19    -0.119421849766E+03    0.13151E+00   -0.41874E-01  2816   0.241E+00    0.226E+00
DAV:  20    -0.119428111588E+03   -0.62618E-02   -0.42783E-02  2736   0.699E-01    0.163E+00
DAV:  21    -0.119419771448E+03    0.83401E-02   -0.19154E-02  3152   0.677E-01    0.192E+00
DAV:  22    -0.119419569469E+03    0.20198E-03   -0.29095E-03  3088   0.388E-01    0.185E+00
DAV:  23    -0.119418844056E+03    0.72541E-03   -0.24178E-03  3184   0.281E-01    0.234E+00
DAV:  24    -0.119423962456E+03   -0.51184E-02   -0.13653E-02  3168   0.623E-01    0.426E+00
DAV:  25    -0.119435904083E+03   -0.11942E-01   -0.16377E-02  3360   0.653E-01    0.638E+00
DAV:  26    -0.119421469604E+03    0.14434E-01   -0.10490E-02  2672   0.380E-01    0.394E+00
DAV:  27    -0.119414069648E+03    0.74000E-02   -0.30602E-02  2880   0.507E-01    0.421E-01
DAV:  28    -0.119415641192E+03   -0.15715E-02   -0.10087E-02  3056   0.367E-01    0.201E+00
DAV:  29    -0.119415672664E+03   -0.31472E-04   -0.13055E-03  2896   0.187E-01    0.186E+00
DAV:  30    -0.119416448484E+03   -0.77582E-03   -0.62191E-04  2912   0.109E-01    0.212E+00
DAV:  31    -0.119415003643E+03    0.14448E-02   -0.85785E-04  2784   0.111E-01    0.136E+00
DAV:  32    -0.119414120496E+03    0.88315E-03   -0.19536E-03  2880   0.140E-01    0.430E-01
DAV:  33    -0.119414103022E+03    0.17473E-04   -0.34316E-04  2928   0.518E-02    0.176E-01
DAV:  34    -0.119414107111E+03   -0.40884E-05   -0.36726E-04  2800   0.654E-02    0.248E-01
DAV:  35    -0.119414117290E+03   -0.10179E-04   -0.88911E-05  2864   0.230E-02    0.301E-01
DAV:  36    -0.119414106957E+03    0.10333E-04   -0.53732E-06  2624   0.827E-03    0.254E-01
DAV:  37    -0.119414082714E+03    0.24243E-04   -0.37124E-05  2784   0.201E-02    0.930E-02
DAV:  38    -0.119414083658E+03   -0.94464E-06   -0.38937E-05  2928   0.185E-02    0.535E-02
DAV:  39    -0.119414084348E+03   -0.69011E-06   -0.33632E-06  2320   0.658E-03
   1 F= -.11941408E+03 E0= -.11941408E+03  d E =-.407187E-11
 Linear response reoptimize wavefunctions to high precision
DAV:   1    -0.119414085962E+03   -0.16141E-05   -0.14242E-06  3008   0.434E-03
DAV:   2    -0.119414085991E+03   -0.28835E-07   -0.28634E-07  2768   0.133E-03
DAV:   3    -0.119414085992E+03   -0.89494E-09   -0.57095E-09  1744   0.270E-04
 Linear response G [H, r] |phi>, progress :
  Direction:   1
       N       E                     dE             d eps       ncg     rms
RMM:   1    -0.710235852349E+03   -0.71024E+03    0.31669E+02  6250   0.891E+01
RMM:   2    -0.554477125552E+03    0.15576E+03   -0.99675E+01  3513   0.417E+01
RMM:   3    -0.561531633248E+03   -0.70545E+01   -0.19849E+01  4019   0.957E+00
RMM:   4    -0.561910647121E+03   -0.37901E+00   -0.75765E-01  4052   0.226E+00
RMM:   5    -0.561933895702E+03   -0.23249E-01   -0.55451E-02  4054   0.552E-01
RMM:   6    -0.561935383461E+03   -0.14878E-02   -0.61517E-03  4345   0.174E-01
RMM:   7    -0.561935567997E+03   -0.18454E-03   -0.23204E-03  5067   0.620E-02
RMM:   8    -0.561935544075E+03    0.23921E-04   -0.13274E-03  5392   0.347E-02
RMM:   9    -0.561935534089E+03    0.99863E-05   -0.24069E-03  5558   0.286E-02
RMM:  10    -0.561935509064E+03    0.25025E-04   -0.26045E-03  5552   0.269E-02
RMM:  11    -0.561935509871E+03   -0.80692E-06   -0.28220E-03  5332   0.266E-02
 Linear response G [H, r] |phi>, progress :
  Direction:   2
       N       E                     dE             d eps       ncg     rms
RMM:   1    -0.679159645374E+03   -0.67916E+03    0.37239E+02  6068   0.899E+01
RMM:   2    -0.554897258990E+03    0.12426E+03   -0.95642E+01  3539   0.399E+01
RMM:   3    -0.561440166108E+03   -0.65429E+01   -0.17914E+01  3936   0.903E+00
RMM:   4    -0.561730370730E+03   -0.29020E+00   -0.67513E-01  4009   0.206E+00
RMM:   5    -0.561749701249E+03   -0.19331E-01   -0.48243E-02  4103   0.498E-01
RMM:   6    -0.561750963178E+03   -0.12619E-02   -0.50398E-03  4403   0.159E-01
RMM:   7    -0.561751165214E+03   -0.20204E-03   -0.18548E-03  5078   0.608E-02
RMM:   8    -0.561751102028E+03    0.63186E-04   -0.33949E-03  5318   0.378E-02
RMM:   9    -0.561751027960E+03    0.74068E-04   -0.14055E-03  5431   0.327E-02
RMM:  10    -0.561750941440E+03    0.86520E-04   -0.14964E-04  5393   0.309E-02
RMM:  11    -0.561750898539E+03    0.42901E-04    0.89068E-04  5187   0.308E-02
 Linear response G [H, r] |phi>, progress :
  Direction:   3
       N       E                     dE             d eps       ncg     rms
RMM:   1    -0.597785535250E+03   -0.59779E+03    0.12372E+03  5930   0.869E+01
RMM:   2    -0.557311764674E+03    0.40474E+02   -0.84845E+01  3553   0.336E+01
RMM:   3    -0.562144736659E+03   -0.48330E+01   -0.11801E+01  3952   0.760E+00
RMM:   4    -0.562394790002E+03   -0.25005E+00   -0.52766E-01  3968   0.182E+00
RMM:   5    -0.562410422676E+03   -0.15633E-01   -0.38650E-02  4061   0.472E-01
RMM:   6    -0.562411620986E+03   -0.11983E-02   -0.37171E-03  4084   0.144E-01
RMM:   7    -0.562411729019E+03   -0.10803E-03   -0.45660E-04  4316   0.453E-02
RMM:   8    -0.562411738789E+03   -0.97697E-05   -0.14476E-04  5200   0.168E-02
RMM:   9    -0.562411739798E+03   -0.10086E-05   -0.56458E-05  5438   0.999E-03
RMM:  10    -0.562411740089E+03   -0.29146E-06   -0.48409E-05  5399   0.849E-03
RMM:  11    -0.562411740337E+03   -0.24807E-06   -0.49231E-05  5184   0.807E-03
RMM:  12    -0.562411740368E+03   -0.30994E-07   -0.46959E-05  5022   0.809E-03
 Linear response to external field (no local field effect), progress :
  Direction:   1
       N       E                     dE             d eps       ncg     rms          rms(c)
RMM:   1    -0.273118074505E+02   -0.27312E+02   -0.16317E+02  4486   0.151E+01
RMM:   2    -0.449620598911E+02   -0.17650E+02    0.44855E+01  3365   0.650E+00
RMM:   3    -0.500067612810E+02   -0.50447E+01   -0.68426E-01  3878   0.189E+00
RMM:   4    -0.500806824529E+02   -0.73921E-01   -0.94077E-02  4018   0.348E-01
RMM:   5    -0.500841318590E+02   -0.34494E-02   -0.36799E-03  4023   0.883E-02
RMM:   6    -0.500843208375E+02   -0.18898E-03   -0.50769E-04  4143   0.224E-02
RMM:   7    -0.500843377873E+02   -0.16950E-04   -0.69473E-05  4227   0.702E-03
RMM:   8    -0.500843392118E+02   -0.14246E-05   -0.72511E-05  4129   0.296E-03
RMM:   9    -0.500843387071E+02    0.50469E-06   -0.93919E-05  3740   0.210E-03
RMM:  10    -0.500843391118E+02   -0.40464E-06   -0.58201E-05  3405   0.195E-03
RMM:  11    -0.500843386587E+02    0.45308E-06   -0.67009E-05  3313   0.193E-03
 change of polarisation eV/A/(eV/A) component  1 :   100.169    -0.002    -0.004
 dielectric tensor                  component  1 :    11.939    -0.000    -0.000
 Linear response to external field (no local field effect), progress :
  Direction:   2
       N       E                     dE             d eps       ncg     rms          rms(c)
RMM:   1    -0.255279866592E+02   -0.25528E+02   -0.12001E+02  4505   0.141E+01
RMM:   2    -0.174089438412E+03   -0.14856E+03    0.55149E+01  3404   0.608E+00
RMM:   3    -0.180272308602E+03   -0.61829E+01   -0.48895E-01  3848   0.174E+00
RMM:   4    -0.180373205707E+03   -0.10090E+00   -0.10560E-01  4001   0.331E-01
RMM:   5    -0.180377308138E+03   -0.41024E-02   -0.54430E-03  4015   0.797E-02
RMM:   6    -0.180377557853E+03   -0.24972E-03   -0.10178E-03  4149   0.204E-02
RMM:   7    -0.180377555031E+03    0.28222E-05   -0.12413E-04  4191   0.625E-03
RMM:   8    -0.180377557584E+03   -0.25535E-05   -0.87185E-05  4168   0.255E-03
RMM:   9    -0.180377553828E+03    0.37557E-05    0.12420E-04  3703   0.179E-03
RMM:  10    -0.180377553104E+03    0.72478E-06   -0.95691E-05  3456   0.165E-03
RMM:  11    -0.180377555288E+03   -0.21842E-05   -0.21334E-04  3371   0.165E-03
 change of polarisation eV/A/(eV/A) component  2 :    -0.003   360.755    -0.000
 dielectric tensor                  component  2 :    -0.000    40.398    -0.000
 Linear response to external field (no local field effect), progress :
  Direction:   3
       N       E                     dE             d eps       ncg     rms          rms(c)
RMM:   1    -0.968582307525E+01   -0.96858E+01   -0.31366E+01  4366   0.116E+01
RMM:   2    -0.112044199129E+02   -0.15186E+01    0.72978E-01  3578   0.384E+00
RMM:   3    -0.114535352040E+02   -0.24912E+00   -0.13097E-01  3902   0.941E-01
RMM:   4    -0.114618168952E+02   -0.82817E-02   -0.11513E-02  4087   0.183E-01
RMM:   5    -0.114622626936E+02   -0.44580E-03   -0.54756E-04  4082   0.456E-02
RMM:   6    -0.114622835619E+02   -0.20868E-04   -0.53310E-05  4118   0.118E-02
RMM:   7    -0.114622856142E+02   -0.20523E-05   -0.46625E-06  4275   0.359E-03
RMM:   8    -0.114622857568E+02   -0.14259E-06   -0.17783E-06  4290   0.135E-03
 change of polarisation eV/A/(eV/A) component  3 :    -0.003    -0.000    22.925
 dielectric tensor                  component  3 :    -0.000    -0.000     3.504
 Linear response to external field, progress :
  Direction:   1
       N       E                     dE             d eps       ncg     rms          rms(c)
RMM:   1    -0.273118074510E+02   -0.27312E+02   -0.16317E+02  4486   0.151E+01
RMM:   2    -0.449620598910E+02   -0.17650E+02    0.44855E+01  3365   0.650E+00    0.136E+01
RMM:   3    -0.464176454070E+02   -0.14556E+01   -0.26959E+00  3699   0.442E+00    0.105E+01
RMM:   4    -0.455820955655E+02    0.83555E+00   -0.62040E-01  3944   0.177E+00    0.899E+00
RMM:   5    -0.437421160144E+02    0.18400E+01   -0.23477E+00  3807   0.347E+00    0.450E+00
RMM:   6    -0.432925093094E+02    0.44961E+00   -0.62793E-01  3817   0.193E+00    0.274E+00
RMM:   7    -0.431490729054E+02    0.14344E+00   -0.22358E-01  3807   0.101E+00    0.208E+00
RMM:   8    -0.430417952464E+02    0.10728E+00   -0.81655E-02  3848   0.678E-01    0.165E+00
RMM:   9    -0.429580549517E+02    0.83740E-01   -0.18524E-02  3652   0.412E-01    0.115E+00
RMM:  10    -0.429361960445E+02    0.21859E-01   -0.17175E-02  3598   0.415E-01    0.868E-01
RMM:  11    -0.429354047999E+02    0.79124E-03   -0.12967E-02  3751   0.318E-01    0.474E-01
RMM:  12    -0.429265110702E+02    0.88937E-02   -0.49490E-03  3723   0.196E-01    0.222E-01
RMM:  13    -0.429233121787E+02    0.31989E-02   -0.22889E-03  3863   0.131E-01    0.137E-01
RMM:  14    -0.429219487207E+02    0.13635E-02   -0.10733E-03  4119   0.653E-02    0.755E-02
RMM:  15    -0.429224443545E+02   -0.49563E-03   -0.43138E-04  4268   0.353E-02    0.436E-02
RMM:  16    -0.429237808099E+02   -0.13365E-02   -0.27141E-04  4501   0.185E-02    0.332E-02
RMM:  17    -0.429247236578E+02   -0.94285E-03   -0.28371E-04  4820   0.164E-02    0.194E-02
RMM:  18    -0.429246741342E+02    0.49524E-04   -0.20597E-04  5090   0.138E-02    0.792E-03
RMM:  19    -0.429246249811E+02    0.49153E-04   -0.21215E-04  5619   0.843E-03    0.614E-03
RMM:  20    -0.429246679080E+02   -0.42927E-04   -0.14130E-04  5488   0.840E-03    0.431E-03
RMM:  21    -0.429246723705E+02   -0.44625E-05   -0.12976E-04  5529   0.810E-03    0.167E-03
RMM:  22    -0.429246836706E+02   -0.11300E-04   -0.57787E-05  5449   0.755E-03    0.122E-03
RMM:  23    -0.429246870298E+02   -0.33592E-05   -0.14607E-04  5241   0.752E-03    0.847E-04
RMM:  24    -0.429246704011E+02    0.16629E-04   -0.52944E-06  4943   0.741E-03    0.465E-04
RMM:  25    -0.429246780083E+02   -0.76072E-05   -0.12032E-04  4869   0.743E-03    0.320E-04
RMM:  26    -0.429246653630E+02    0.12645E-04    0.59476E-04  4509   0.735E-03    0.239E-04
RMM:  27    -0.429246637002E+02    0.16629E-05    0.36750E-04  4480   0.737E-03    0.274E-04
RMM:  28    -0.429246598348E+02    0.38654E-05    0.11907E-03  4486   0.735E-03    0.196E-04
RMM:  29    -0.429246670191E+02   -0.71843E-05    0.11097E-03  4457   0.738E-03    0.223E-04
RMM:  30    -0.429246584104E+02    0.86088E-05    0.10888E-03  4449   0.735E-03    0.176E-04
RMM:  31    -0.429246667917E+02   -0.83813E-05    0.10934E-03  4441   0.738E-03    0.194E-04
RMM:  32    -0.429246585201E+02    0.82717E-05    0.11264E-03  4446   0.735E-03    0.152E-04
RMM:  33    -0.429246659982E+02   -0.74781E-05    0.11121E-03  4441   0.738E-03    0.200E-04
RMM:  34    -0.429246577125E+02    0.82857E-05    0.11241E-03  4440   0.736E-03    0.155E-04
RMM:  35    -0.429246651746E+02   -0.74622E-05    0.10948E-03  4441   0.738E-03    0.195E-04
RMM:  36    -0.429246573802E+02    0.77945E-05    0.10996E-03  4443   0.736E-03    0.166E-04
RMM:  37    -0.429246650449E+02   -0.76647E-05    0.10827E-03  4447   0.737E-03    0.185E-04
RMM:  38    -0.429246581386E+02    0.69064E-05    0.11069E-03  4448   0.736E-03    0.155E-04
RMM:  39    -0.429246654077E+02   -0.72691E-05    0.10793E-03  4456   0.738E-03    0.188E-04
RMM:  40    -0.429246577375E+02    0.76702E-05    0.10963E-03  4454   0.737E-03    0.160E-04
RMM:  41    -0.429246646166E+02   -0.68791E-05    0.10548E-03  4453   0.737E-03    0.202E-04
RMM:  42    -0.429246591528E+02    0.54638E-05    0.10605E-03  4454   0.738E-03    0.168E-04
RMM:  43    -0.429246639788E+02   -0.48260E-05    0.10733E-03  4460   0.738E-03    0.175E-04
RMM:  44    -0.429246586280E+02    0.53508E-05    0.11012E-03  4455   0.738E-03    0.163E-04
 change of polarisation eV/A/(eV/A) component  1 :    88.753    -0.002    -0.001
 dielectric tensor                  component  1 :    10.693    -0.000    -0.000
 Linear response to external field, progress :
  Direction:   2
       N       E                     dE             d eps       ncg     rms          rms(c)
RMM:   1    -0.255279866587E+02   -0.25528E+02   -0.12001E+02  4505   0.141E+01
RMM:   2    -0.174089438412E+03   -0.14856E+03    0.55149E+01  3404   0.608E+00    0.134E+01
RMM:   3    -0.178646966312E+03   -0.45575E+01   -0.29509E-01  3848   0.262E+00    0.114E+01
RMM:   4    -0.176965143622E+03    0.16818E+01   -0.29330E+00  3654   0.429E+00    0.289E+00
RMM:   5    -0.176735069424E+03    0.23007E+00   -0.24461E-01  4022   0.114E+00    0.212E+00
RMM:   6    -0.176705141889E+03    0.29928E-01   -0.19337E-02  3965   0.358E-01    0.186E+00
RMM:   7    -0.176594698404E+03    0.11044E+00   -0.10439E-01  3852   0.785E-01    0.103E+00
RMM:   8    -0.176460309581E+03    0.13439E+00   -0.51336E-03  3603   0.373E-01    0.339E-01
RMM:   9    -0.176422716365E+03    0.37593E-01   -0.98458E-04  4126   0.110E-01    0.252E-01
RMM:  10    -0.176412725066E+03    0.99913E-02   -0.64397E-04  3997   0.424E-02    0.212E-01
RMM:  11    -0.176407629175E+03    0.50959E-02   -0.24754E-03  4053   0.110E-01    0.919E-02
RMM:  12    -0.176418433549E+03   -0.10804E-01    0.20062E-04  4095   0.409E-02    0.409E-02
RMM:  13    -0.176417882126E+03    0.55142E-03    0.12316E-03  3940   0.289E-02    0.329E-02
RMM:  14    -0.176417981360E+03   -0.99234E-04   -0.26467E-04  4390   0.140E-02    0.240E-02
RMM:  15    -0.176418552718E+03   -0.57136E-03   -0.33697E-04  4391   0.122E-02    0.121E-02
RMM:  16    -0.176418758609E+03   -0.20589E-03   -0.42225E-04  4334   0.927E-03    0.635E-03
RMM:  17    -0.176418686125E+03    0.72484E-04   -0.29551E-04  4871   0.668E-03    0.429E-03
RMM:  18    -0.176418699145E+03   -0.13020E-04   -0.26765E-04  5253   0.442E-03    0.340E-03
RMM:  19    -0.176418750910E+03   -0.51765E-04   -0.25382E-04  5005   0.456E-03    0.181E-03
RMM:  20    -0.176418720623E+03    0.30287E-04   -0.27869E-04  5170   0.424E-03    0.871E-04
RMM:  21    -0.176418732513E+03   -0.11890E-04   -0.26133E-04  4978   0.404E-03    0.704E-04
RMM:  22    -0.176418757280E+03   -0.24766E-04   -0.26642E-04  4646   0.394E-03    0.401E-04
RMM:  23    -0.176418749212E+03    0.80672E-05   -0.25568E-04  4532   0.392E-03    0.251E-04
RMM:  24    -0.176418743502E+03    0.57100E-05   -0.25280E-04  4413   0.390E-03    0.187E-04
RMM:  25    -0.176418748141E+03   -0.46388E-05   -0.26880E-04  4211   0.389E-03    0.167E-04
RMM:  26    -0.176418748944E+03   -0.80302E-06   -0.27342E-04  4200   0.388E-03    0.135E-04
RMM:  27    -0.176418749031E+03   -0.86665E-07   -0.26424E-04  4177   0.388E-03    0.111E-04
RMM:  28    -0.176418746229E+03    0.28021E-05   -0.26603E-04  4157   0.388E-03    0.116E-04
RMM:  29    -0.176418746429E+03   -0.20011E-06   -0.28659E-04  4158   0.388E-03    0.969E-05
RMM:  30    -0.176418745387E+03    0.10422E-05   -0.26029E-04  4152   0.388E-03    0.104E-04
RMM:  31    -0.176418744910E+03    0.47669E-06   -0.25651E-04  4146   0.387E-03    0.933E-05
RMM:  32    -0.176418745222E+03   -0.31231E-06   -0.26036E-04  4138   0.388E-03    0.104E-04
RMM:  33    -0.176418745475E+03   -0.25313E-06   -0.26428E-04  4140   0.388E-03    0.925E-05
RMM:  34    -0.176418745486E+03   -0.10387E-07   -0.26835E-04  4139   0.388E-03    0.108E-04
RMM:  35    -0.176418745449E+03    0.36784E-07   -0.26987E-04  4139   0.388E-03    0.868E-05
RMM:  36    -0.176418745715E+03   -0.26571E-06   -0.25247E-04  4136   0.388E-03    0.101E-04
RMM:  37    -0.176418744458E+03    0.12565E-05   -0.26185E-04  4131   0.388E-03    0.958E-05
 change of polarisation eV/A/(eV/A) component  2 :    -0.003   356.510    -0.000
 dielectric tensor                  component  2 :    -0.000    39.935    -0.000
 Linear response to external field, progress :
  Direction:   3
       N       E                     dE             d eps       ncg     rms          rms(c)
RMM:   1    -0.968582307525E+01   -0.96858E+01   -0.31366E+01  4366   0.116E+01
RMM:   2    -0.112044199129E+02   -0.15186E+01    0.72978E-01  3578   0.384E+00    0.104E+01
RMM:   3    -0.203294701682E+01    0.91715E+01   -0.16832E+01  4154   0.766E+00    0.880E+00
RMM:   4    -0.196753384324E+01    0.65413E-01   -0.50439E+00  2939   0.464E+00    0.227E+00
RMM:   5    -0.159926634545E+01    0.36827E+00   -0.10747E+00  3507   0.219E+00    0.165E+00
RMM:   6    -0.154942952393E+01    0.49837E-01   -0.10387E-01  3750   0.670E-01    0.161E+00
RMM:   7    -0.153248763643E+01    0.16942E-01   -0.12039E-02  3800   0.220E-01    0.135E+00
RMM:   8    -0.149311509684E+01    0.39373E-01   -0.55132E-02  4154   0.489E-01    0.650E-01
RMM:   9    -0.147564711022E+01    0.17468E-01   -0.19528E-02  3896   0.242E-01    0.208E-01
RMM:  10    -0.147291756772E+01    0.27295E-02   -0.73435E-03  3689   0.104E-01    0.125E-01
RMM:  11    -0.147034598545E+01    0.25716E-02   -0.55904E-03  4197   0.634E-02    0.904E-02
RMM:  12    -0.146844321920E+01    0.19028E-02   -0.76216E-03  4191   0.525E-02    0.692E-02
RMM:  13    -0.146671536240E+01    0.17279E-02   -0.46377E-03  4751   0.325E-02    0.574E-02
RMM:  14    -0.146569464590E+01    0.10207E-02   -0.36933E-03  4717   0.317E-02    0.322E-02
RMM:  15    -0.146539750977E+01    0.29714E-03   -0.31023E-03  5376   0.192E-02    0.976E-03
RMM:  16    -0.146538356845E+01    0.13941E-04   -0.37047E-03  5378   0.176E-02    0.132E-02
RMM:  17    -0.146526427678E+01    0.11929E-03   -0.29002E-03  5329   0.182E-02    0.114E-02
RMM:  18    -0.146521511615E+01    0.49161E-04   -0.17900E-03  5579   0.167E-02    0.945E-03
RMM:  19    -0.146522410103E+01   -0.89849E-05   -0.20548E-03  5512   0.165E-02    0.562E-03
RMM:  20    -0.146523172853E+01   -0.76275E-05   -0.12223E-03  5511   0.165E-02    0.293E-03
RMM:  21    -0.146526111713E+01   -0.29389E-04   -0.20159E-03  5462   0.162E-02    0.925E-04
RMM:  22    -0.146522676824E+01    0.34349E-04    0.25056E-03  4941   0.162E-02    0.805E-04
RMM:  23    -0.146516213123E+01    0.64637E-04    0.11334E-03  4398   0.161E-02    0.652E-04
RMM:  24    -0.146520443372E+01   -0.42302E-04    0.22071E-03  4407   0.161E-02    0.643E-04
RMM:  25    -0.146521688387E+01   -0.12450E-04    0.15313E-03  4624   0.161E-02    0.495E-04
RMM:  26    -0.146521995227E+01   -0.30684E-05    0.19396E-03  4823   0.162E-02    0.538E-04
RMM:  27    -0.146523096794E+01   -0.11016E-04    0.12944E-03  4583   0.161E-02    0.343E-04
RMM:  28    -0.146521950928E+01    0.11459E-04    0.17978E-03  4364   0.162E-02    0.408E-04
RMM:  29    -0.146517766402E+01    0.41845E-04    0.21495E-03  4309   0.161E-02    0.445E-04
RMM:  30    -0.146525025049E+01   -0.72586E-04    0.16041E-03  4300   0.161E-02    0.394E-04
RMM:  31    -0.146518062070E+01    0.69630E-04    0.23697E-03  4298   0.161E-02    0.354E-04
RMM:  32    -0.146528042858E+01   -0.99808E-04    0.12376E-03  4290   0.161E-02    0.407E-04
RMM:  33    -0.146521770816E+01    0.62720E-04    0.17218E-03  4294   0.161E-02    0.366E-04
RMM:  34    -0.146522981238E+01   -0.12104E-04    0.16186E-03  4293   0.161E-02    0.486E-04
RMM:  35    -0.146524962160E+01   -0.19809E-04    0.16455E-03  4294   0.161E-02    0.401E-04
RMM:  36    -0.146524451197E+01    0.51096E-05    0.18452E-03  4287   0.161E-02    0.437E-04
RMM:  37    -0.146525645686E+01   -0.11945E-04    0.15806E-03  4295   0.161E-02    0.501E-04
RMM:  38    -0.146520814428E+01    0.48313E-04    0.18566E-03  4294   0.161E-02    0.547E-04
RMM:  39    -0.146520551859E+01    0.26257E-05    0.20226E-03  4295   0.161E-02    0.461E-04
RMM:  40    -0.146520306374E+01    0.24548E-05    0.18202E-03  4297   0.162E-02    0.641E-04
RMM:  41    -0.146519046157E+01    0.12602E-04    0.21572E-03  4299   0.161E-02    0.652E-04
RMM:  42    -0.146516473602E+01    0.25726E-04    0.21328E-03  4302   0.161E-02    0.504E-04
RMM:  43    -0.146521149825E+01   -0.46762E-04    0.18436E-03  4303   0.161E-02    0.511E-04
RMM:  44    -0.146521528066E+01   -0.37824E-05    0.17566E-03  4299   0.161E-02    0.664E-04
RMM:  45    -0.146521993450E+01   -0.46538E-05    0.19788E-03  4301   0.161E-02    0.815E-04
RMM:  46    -0.146520290725E+01    0.17027E-04    0.21820E-03  4299   0.161E-02    0.618E-04
RMM:  47    -0.146519390943E+01    0.89978E-05    0.22246E-03  4311   0.161E-02    0.610E-04
RMM:  48    -0.146523031019E+01   -0.36401E-04    0.15354E-03  4302   0.161E-02    0.476E-04
RMM:  49    -0.146527046932E+01   -0.40159E-04    0.11361E-03  4307   0.161E-02    0.689E-04
RMM:  50    -0.146526147056E+01    0.89988E-05    0.17091E-03  4303   0.162E-02    0.849E-04
RMM:  51    -0.146524104167E+01    0.20429E-04    0.18921E-03  4303   0.161E-02    0.701E-04
RMM:  52    -0.146521507795E+01    0.25964E-04    0.20531E-03  4298   0.161E-02    0.482E-04
RMM:  53    -0.146523165718E+01   -0.16579E-04    0.17539E-03  4302   0.161E-02    0.572E-04
RMM:  54    -0.146526611951E+01   -0.34462E-04    0.14723E-03  4300   0.161E-02    0.694E-04
RMM:  55    -0.146523652394E+01    0.29596E-04    0.19333E-03  4301   0.161E-02    0.636E-04
RMM:  56    -0.146520120009E+01    0.35324E-04    0.23834E-03  4305   0.161E-02    0.606E-04
RMM:  57    -0.146524625606E+01   -0.45056E-04    0.18463E-03  4301   0.161E-02    0.521E-04
RMM:  58    -0.146514275115E+01    0.10350E-03    0.27384E-03  4299   0.161E-02    0.739E-04
RMM:  59    -0.146523954641E+01   -0.96795E-04    0.18120E-03  4302   0.161E-02    0.694E-04
RMM:  60    -0.146522129095E+01    0.18255E-04    0.19163E-03  4298   0.161E-02    0.848E-04
RMM:  61    -0.146525697873E+01   -0.35688E-04    0.15359E-03  4300   0.161E-02    0.683E-04
RMM:  62    -0.146521452277E+01    0.42456E-04    0.19961E-03  4304   0.161E-02    0.753E-04
RMM:  63    -0.146526233088E+01   -0.47808E-04    0.16033E-03  4300   0.161E-02    0.630E-04
RMM:  64    -0.146516056230E+01    0.10177E-03    0.25463E-03  4300   0.161E-02    0.586E-04
RMM:  65    -0.146526980694E+01   -0.10924E-03    0.13966E-03  4305   0.161E-02    0.605E-04
 change of polarisation eV/A/(eV/A) component  3 :    -0.001    -0.000     3.103
 dielectric tensor                  component  3 :    -0.000    -0.000     1.339
 Linear response DOF=          60
 Linear response progress:
  Degree of freedom:   1/ 60
       N       E                     dE             d eps       ncg     rms          rms(c)
RMM:   1    -0.938356876977E-01   -0.93836E-01   -0.86457E-02  4487   0.725E-01
RMM:   2    -0.871486389492E-01    0.66870E-02   -0.37536E-03  3064   0.301E-01    0.176E-01
RMM:   3    -0.871991609140E-01   -0.50522E-04   -0.83269E-04  3738   0.749E-02    0.146E-01
RMM:   4    -0.872018226854E-01   -0.26618E-05   -0.13944E-04  3332   0.385E-02    0.120E-01
RMM:   5    -0.871063388252E-01    0.95484E-04   -0.84835E-05  3694   0.265E-02    0.911E-02
RMM:   6    -0.870906712009E-01    0.15668E-04   -0.20288E-05  3779   0.282E-02    0.612E-02
RMM:   7    -0.870499573426E-01    0.40714E-04   -0.20273E-05  3858   0.284E-02    0.207E-02
RMM:   8    -0.870535642756E-01   -0.36069E-05    0.68985E-05  3946   0.855E-03    0.153E-02
RMM:   9    -0.870507845996E-01    0.27797E-05    0.68984E-05  3965   0.620E-03    0.113E-02
RMM:  10    -0.870445812495E-01    0.62034E-05    0.85789E-05  4405   0.489E-03    0.868E-03
RMM:  11    -0.870423555179E-01    0.22257E-05    0.98176E-05  4450   0.362E-03    0.600E-03
RMM:  12    -0.870414744349E-01    0.88108E-06    0.10241E-04  4310   0.409E-03    0.272E-03
RMM:  13    -0.870389059769E-01    0.25685E-05    0.10512E-04  4967   0.189E-03    0.151E-03
RMM:  14    -0.870378732587E-01    0.10327E-05    0.10191E-04  4851   0.198E-03    0.813E-04
RMM:  15    -0.870376009210E-01    0.27234E-06    0.10219E-04  5435   0.144E-03    0.508E-04
RMM:  16    -0.870376409364E-01   -0.40015E-07    0.99120E-05  5302   0.135E-03    0.365E-04
RMM:  17    -0.870380498641E-01   -0.40893E-06    0.88320E-05  5402   0.129E-03    0.207E-04
RMM:  18    -0.870391479924E-01   -0.10981E-05    0.77175E-05  5600   0.125E-03    0.131E-04
RMM:  19    -0.870383580660E-01    0.78993E-06    0.80395E-05  5363   0.123E-03    0.693E-05
 first order change of Fermi-energy -0.105749430591340     
 force on displaced ion       1 direction 1 : -11.862  -0.000  -0.887
 Born effective charge ion    1 direction 1 :   6.491  -0.000  -0.014
 Linear response progress:
  Degree of freedom:   2/ 60
       N       E                     dE             d eps       ncg     rms          rms(c)
RMM:   1    -0.806984316992E-01   -0.80698E-01   -0.77927E-02  3932   0.657E-01
RMM:   2    -0.776222558645E-01    0.30762E-02   -0.35289E-03  3425   0.197E-01    0.125E-01
RMM:   3    -0.776668953226E-01   -0.44639E-04   -0.21770E-04  3723   0.317E-02    0.109E-01
RMM:   4    -0.775693771371E-01    0.97518E-04   -0.21367E-04  3761   0.398E-02    0.383E-02
RMM:   5    -0.775674461306E-01    0.19310E-05   -0.51071E-05  3784   0.201E-02    0.138E-02
RMM:   6    -0.775663309376E-01    0.11152E-05   -0.42568E-06  4079   0.532E-03    0.108E-02
RMM:   7    -0.775661462077E-01    0.18473E-06   -0.45052E-06  3566   0.608E-03    0.454E-03
 first order change of Fermi-energy  6.194608682230651E-004
 force on displaced ion       1 direction 2 :  -0.003  -8.501   0.001
 Born effective charge ion    1 direction 2 :   0.001   7.112   0.000
 Linear response progress:
  Degree of freedom:   3/ 60
       N       E                     dE             d eps       ncg     rms          rms(c)
RMM:   1    -0.928804886726E-01   -0.92880E-01   -0.91649E-02  4193   0.678E-01
RMM:   2    -0.863194671408E-01    0.65610E-02   -0.42206E-03  3398   0.217E-01    0.154E-01
RMM:   3    -0.863434584255E-01   -0.23991E-04   -0.29789E-04  3644   0.438E-02    0.123E-01
RMM:   4    -0.863435164504E-01   -0.58025E-07   -0.80908E-05  3572   0.286E-02    0.110E-01
RMM:   5    -0.862822764781E-01    0.61240E-04   -0.97186E-05  3651   0.309E-02    0.638E-02
RMM:   6    -0.862866127319E-01   -0.43363E-05   -0.13316E-04  3821   0.311E-02    0.320E-02
RMM:   7    -0.862941875514E-01   -0.75748E-05   -0.67292E-06  3817   0.935E-03    0.229E-02
RMM:   8    -0.862908567496E-01    0.33308E-05    0.13558E-06  4377   0.303E-03    0.199E-02
RMM:   9    -0.862673809348E-01    0.23476E-04   -0.13746E-05  4449   0.915E-03    0.743E-03
RMM:  10    -0.862618527349E-01    0.55282E-05    0.12895E-06  3937   0.306E-03    0.441E-03
RMM:  11    -0.862602198540E-01    0.16329E-05    0.18707E-06  4395   0.173E-03    0.313E-03
RMM:  12    -0.862590409882E-01    0.11789E-05    0.13046E-06  4437   0.133E-03    0.240E-03
RMM:  13    -0.862579666132E-01    0.10744E-05   -0.65952E-08  4609   0.120E-03    0.170E-03
RMM:  14    -0.862579801812E-01   -0.13568E-07   -0.53197E-07  4621   0.107E-03    0.106E-03
 first order change of Fermi-energy -2.555286905168153E-002
 force on displaced ion       1 direction 3 :  -0.887  -0.000 -13.597
 Born effective charge ion    1 direction 3 :  -2.389   0.000   0.073
 Linear response progress:
  Degree of freedom:   4/ 60
       N       E                     dE             d eps       ncg     rms          rms(c)
RMM:   1    -0.938072514412E-01   -0.93807E-01   -0.86223E-02  4488   0.725E-01
RMM:   2    -0.870958185713E-01    0.67114E-02   -0.36255E-03  3065   0.301E-01    0.176E-01
RMM:   3    -0.871566174299E-01   -0.60799E-04   -0.10836E-03  3737   0.747E-02    0.146E-01
RMM:   4    -0.871536037537E-01    0.30137E-05   -0.13911E-04  3331   0.384E-02    0.120E-01
RMM:   5    -0.870565746409E-01    0.97029E-04   -0.96147E-05  3694   0.264E-02    0.911E-02
RMM:   6    -0.870437772867E-01    0.12797E-04   -0.89219E-05  3760   0.280E-02    0.612E-02
RMM:   7    -0.869999887684E-01    0.43789E-04   -0.91671E-05  3848   0.284E-02    0.207E-02
RMM:   8    -0.870066073129E-01   -0.66185E-05   -0.33266E-06  3838   0.842E-03    0.153E-02
RMM:   9    -0.870041822037E-01    0.24251E-05   -0.15812E-06  3786   0.607E-03    0.112E-02
RMM:  10    -0.869999443614E-01    0.42378E-05   -0.52267E-06  4176   0.479E-03    0.869E-03
RMM:  11    -0.869978052707E-01    0.21391E-05   -0.30703E-06  4167   0.330E-03    0.609E-03
RMM:  12    -0.869976916243E-01    0.11365E-06   -0.86240E-07  4104   0.394E-03    0.277E-03
 first order change of Fermi-energy -0.107014069640776     
 force on displaced ion       2 direction 1 : -12.046   0.000   0.860
 Born effective charge ion    2 direction 1 :   6.518   0.000   0.010
 Linear response progress:
  Degree of freedom:   5/ 60
       N       E                     dE             d eps       ncg     rms          rms(c)
RMM:   1    -0.806921906337E-01   -0.80692E-01   -0.77912E-02  3930   0.657E-01
RMM:   2    -0.776010623475E-01    0.30911E-02   -0.35227E-03  3421   0.197E-01    0.125E-01
RMM:   3    -0.776460805306E-01   -0.45018E-04   -0.22049E-04  3722   0.318E-02    0.109E-01
RMM:   4    -0.775497785839E-01    0.96302E-04   -0.20919E-04  3764   0.394E-02    0.389E-02
RMM:   5    -0.775477876097E-01    0.19910E-05   -0.52259E-05  3783   0.204E-02    0.138E-02
RMM:   6    -0.775466049438E-01    0.11827E-05   -0.43712E-06  4077   0.540E-03    0.108E-02
RMM:   7    -0.775462756699E-01    0.32927E-06   -0.44803E-06  3573   0.608E-03    0.449E-03
 first order change of Fermi-energy  7.763725738296756E-004
 force on displaced ion       2 direction 2 :  -0.003  -8.502  -0.001
 Born effective charge ion    2 direction 2 :   0.000   7.093  -0.000
 Linear response progress:
  Degree of freedom:   6/ 60
       N       E                     dE             d eps       ncg     rms          rms(c)
RMM:   1    -0.928470939600E-01   -0.92847E-01   -0.91396E-02  4198   0.678E-01
RMM:   2    -0.862862097894E-01    0.65609E-02   -0.42167E-03  3398   0.217E-01    0.154E-01
RMM:   3    -0.863178555543E-01   -0.31646E-04   -0.31304E-04  3644   0.437E-02    0.123E-01
RMM:   4    -0.863103285795E-01    0.75270E-05   -0.72443E-05  3573   0.286E-02    0.110E-01
RMM:   5    -0.862472792675E-01    0.63049E-04   -0.10172E-04  3651   0.309E-02    0.638E-02
RMM:   6    -0.862683366547E-01   -0.21057E-04   -0.13828E-04  3823   0.311E-02    0.320E-02
RMM:   7    -0.862646734152E-01    0.36632E-05   -0.12461E-05  3812   0.934E-03    0.229E-02
RMM:   8    -0.862623783089E-01    0.22951E-05   -0.70006E-06  4372   0.303E-03    0.199E-02
RMM:   9    -0.862382734668E-01    0.24105E-04   -0.17746E-05  4440   0.914E-03    0.746E-03
RMM:  10    -0.862345128547E-01    0.37606E-05   -0.53525E-06  3925   0.306E-03    0.441E-03
RMM:  11    -0.862326020017E-01    0.19109E-05   -0.49274E-06  4390   0.171E-03    0.314E-03
RMM:  12    -0.862309957417E-01    0.16063E-05   -0.35367E-06  4411   0.131E-03    0.240E-03
RMM:  13    -0.862300385151E-01    0.95723E-06   -0.58652E-06  4600   0.119E-03    0.170E-03
 first order change of Fermi-energy  5.604397508178760E-002
 force on displaced ion       2 direction 3 :   0.866  -0.000 -13.582
 Born effective charge ion    2 direction 3 :   2.393   0.000   0.067
 Linear response progress:
  Degree of freedom:   7/ 60
       N       E                     dE             d eps       ncg     rms          rms(c)
RMM:   1    -0.937577467771E-01   -0.93758E-01   -0.85873E-02  4518   0.725E-01
RMM:   2    -0.870950452289E-01    0.66627E-02   -0.35751E-03  3075   0.300E-01    0.177E-01
RMM:   3    -0.871681976581E-01   -0.73152E-04   -0.13284E-03  3743   0.746E-02    0.146E-01
RMM:   4    -0.871334375468E-01    0.34760E-04   -0.13826E-04  3334   0.387E-02    0.121E-01
RMM:   5    -0.870819578830E-01    0.51480E-04   -0.11590E-04  3700   0.263E-02    0.911E-02
RMM:   6    -0.870020785149E-01    0.79879E-04   -0.16572E-04  3782   0.282E-02    0.615E-02
RMM:   7    -0.870025954597E-01   -0.51694E-06   -0.17746E-04  3862   0.285E-02    0.207E-02
RMM:   8    -0.870050189685E-01   -0.24235E-05   -0.10707E-04  3979   0.861E-03    0.153E-02
RMM:   9    -0.870049167963E-01    0.10217E-06   -0.96142E-05  4053   0.624E-03    0.113E-02
RMM:  10    -0.869999745376E-01    0.49423E-05   -0.11656E-04  4542   0.500E-03    0.870E-03
RMM:  11    -0.869997292424E-01    0.24530E-06   -0.12869E-04  4572   0.372E-03    0.601E-03
RMM:  12    -0.869991032732E-01    0.62597E-06   -0.13197E-04  4461   0.419E-03    0.270E-03
RMM:  13    -0.869980200747E-01    0.10832E-05   -0.13514E-04  5093   0.204E-03    0.149E-03
RMM:  14    -0.869954170958E-01    0.26030E-05   -0.12722E-04  4962   0.214E-03    0.796E-04
RMM:  15    -0.869955341602E-01   -0.11706E-06   -0.13209E-04  5475   0.162E-03    0.498E-04
RMM:  16    -0.869948941588E-01    0.64000E-06   -0.12500E-04  5335   0.153E-03    0.354E-04
RMM:  17    -0.869962262431E-01   -0.13321E-05   -0.13402E-04  5378   0.149E-03    0.203E-04
RMM:  18    -0.869951952440E-01    0.10310E-05   -0.12286E-04  5639   0.145E-03    0.126E-04
RMM:  19    -0.869964209660E-01   -0.12257E-05   -0.13313E-04  5434   0.141E-03    0.713E-05
 first order change of Fermi-energy  0.137566673591127     
 force on displaced ion       3 direction 1 : -11.873   0.000   0.897
 Born effective charge ion    3 direction 1 :   6.490   0.000   0.014
 Linear response progress:
  Degree of freedom:   8/ 60
       N       E                     dE             d eps       ncg     rms          rms(c)
RMM:   1    -0.807317646818E-01   -0.80732E-01   -0.78297E-02  3927   0.658E-01
RMM:   2    -0.776016842819E-01    0.31301E-02   -0.35421E-03  3419   0.197E-01    0.125E-01
RMM:   3    -0.776482203654E-01   -0.46536E-04   -0.22654E-04  3721   0.320E-02    0.109E-01
RMM:   4    -0.775511768251E-01    0.97044E-04   -0.21539E-04  3766   0.400E-02    0.379E-02
RMM:   5    -0.775497524084E-01    0.14244E-05   -0.49639E-05  3797   0.199E-02    0.138E-02
RMM:   6    -0.775485920557E-01    0.11604E-05   -0.42429E-06  4082   0.529E-03    0.108E-02
RMM:   7    -0.775483521015E-01    0.23995E-06   -0.44891E-06  3574   0.610E-03    0.452E-03
 first order change of Fermi-energy  5.622670680160979E-004
 force on displaced ion       3 direction 2 :   0.004  -8.509   0.001
 Born effective charge ion    3 direction 2 :  -0.000   7.044   0.000
 Linear response progress:
  Degree of freedom:   9/ 60
       N       E                     dE             d eps       ncg     rms          rms(c)
RMM:   1    -0.928602255492E-01   -0.92860E-01   -0.91374E-02  4205   0.679E-01
RMM:   2    -0.862943430629E-01    0.65659E-02   -0.42197E-03  3394   0.217E-01    0.154E-01
RMM:   3    -0.863318796312E-01   -0.37537E-04   -0.37058E-04  3640   0.439E-02    0.123E-01
RMM:   4    -0.863171370305E-01    0.14743E-04   -0.71612E-05  3568   0.287E-02    0.110E-01
RMM:   5    -0.862589226528E-01    0.58214E-04   -0.10323E-04  3657   0.309E-02    0.639E-02
RMM:   6    -0.862633288082E-01   -0.44062E-05   -0.13784E-04  3816   0.313E-02    0.319E-02
RMM:   7    -0.862724875345E-01   -0.91587E-05   -0.18904E-05  3828   0.932E-03    0.230E-02
RMM:   8    -0.862692161781E-01    0.32714E-05   -0.13626E-05  4390   0.300E-03    0.199E-02
RMM:   9    -0.862454538674E-01    0.23762E-04   -0.23012E-05  4484   0.921E-03    0.748E-03
RMM:  10    -0.862404717949E-01    0.49821E-05   -0.12185E-05  3969   0.310E-03    0.443E-03
RMM:  11    -0.862388472334E-01    0.16246E-05   -0.10642E-05  4435   0.176E-03    0.314E-03
RMM:  12    -0.862375133823E-01    0.13339E-05   -0.97428E-06  4545   0.134E-03    0.240E-03
RMM:  13    -0.862364195681E-01    0.10938E-05   -0.96486E-06  4711   0.120E-03    0.170E-03
RMM:  14    -0.862363980767E-01    0.21491E-07   -0.84695E-06  4671   0.109E-03    0.105E-03
 first order change of Fermi-energy -2.519274717946995E-002
 force on displaced ion       3 direction 3 :   0.896  -0.000 -13.603
 Born effective charge ion    3 direction 3 :   2.389   0.000   0.073
 Linear response progress:
  Degree of freedom:  10/ 60
       N       E                     dE             d eps       ncg     rms          rms(c)
RMM:   1    -0.937696593551E-01   -0.93770E-01   -0.85941E-02  4518   0.725E-01
RMM:   2    -0.871279911941E-01    0.66417E-02   -0.37245E-03  3074   0.300E-01    0.177E-01
RMM:   3    -0.871520446230E-01   -0.24053E-04   -0.10264E-03  3737   0.745E-02    0.146E-01
RMM:   4    -0.871543477530E-01   -0.23031E-05   -0.13722E-04  3331   0.386E-02    0.121E-01
RMM:   5    -0.870927809168E-01    0.61567E-04   -0.97743E-05  3695   0.262E-02    0.911E-02
RMM:   6    -0.870186471195E-01    0.74134E-04   -0.84318E-05  3770   0.280E-02    0.614E-02
RMM:   7    -0.870102556230E-01    0.83915E-05   -0.99088E-05  3848   0.285E-02    0.207E-02
RMM:   8    -0.870131357626E-01   -0.28801E-05   -0.17660E-05  3838   0.842E-03    0.153E-02
RMM:   9    -0.870121465222E-01    0.98924E-06   -0.11103E-05  3713   0.604E-03    0.112E-02
RMM:  10    -0.870055854787E-01    0.65610E-05   -0.12116E-05  4052   0.491E-03    0.869E-03
RMM:  11    -0.870038971350E-01    0.16883E-05   -0.86845E-06  4000   0.323E-03    0.610E-03
RMM:  12    -0.870028410719E-01    0.10561E-05   -0.61077E-06  3948   0.392E-03    0.279E-03
RMM:  13    -0.870016325782E-01    0.12085E-05   -0.59286E-06  4439   0.144E-03    0.152E-03
RMM:  14    -0.869997197339E-01    0.19128E-05   -0.29079E-06  4424   0.151E-03    0.838E-04
RMM:  15    -0.869995524742E-01    0.16726E-06   -0.58023E-06  5205   0.887E-04    0.541E-04
 first order change of Fermi-energy  0.136456599560542     
 force on displaced ion       4 direction 1 : -11.855  -0.000  -0.900
 Born effective charge ion    4 direction 1 :   6.489  -0.000  -0.014
 Linear response progress:
  Degree of freedom:  11/ 60
       N       E                     dE             d eps       ncg     rms          rms(c)
RMM:   1    -0.807461852277E-01   -0.80746E-01   -0.78421E-02  3924   0.658E-01
RMM:   2    -0.776178405055E-01    0.31283E-02   -0.35563E-03  3420   0.198E-01    0.125E-01
RMM:   3    -0.776641402889E-01   -0.46300E-04   -0.22541E-04  3724   0.319E-02    0.109E-01
RMM:   4    -0.775666816478E-01    0.97459E-04   -0.21756E-04  3765   0.401E-02    0.377E-02
RMM:   5    -0.775652049777E-01    0.14767E-05   -0.49490E-05  3795   0.198E-02    0.138E-02
RMM:   6    -0.775640426267E-01    0.11624E-05   -0.42186E-06  4087   0.526E-03    0.108E-02
RMM:   7    -0.775638296185E-01    0.21301E-06   -0.45030E-06  3576   0.610E-03    0.454E-03
 first order change of Fermi-energy  6.598090011467050E-004
 force on displaced ion       4 direction 2 :   0.003  -8.509  -0.001
 Born effective charge ion    4 direction 2 :  -0.000   7.095  -0.000
 Linear response progress:
  Degree of freedom:  12/ 60
       N       E                     dE             d eps       ncg     rms          rms(c)
RMM:   1    -0.928688041054E-01   -0.92869E-01   -0.91421E-02  4206   0.679E-01
RMM:   2    -0.863282970682E-01    0.65405E-02   -0.42127E-03  3392   0.217E-01    0.154E-01
RMM:   3    -0.863501173833E-01   -0.21820E-04   -0.24201E-04  3644   0.440E-02    0.123E-01
RMM:   4    -0.863549107615E-01   -0.47934E-05   -0.81371E-05  3571   0.287E-02    0.110E-01
RMM:   5    -0.862879200780E-01    0.66991E-04   -0.95230E-05  3657   0.309E-02    0.639E-02
RMM:   6    -0.863085689741E-01   -0.20649E-04   -0.13568E-04  3816   0.313E-02    0.319E-02
RMM:   7    -0.863039336793E-01    0.46353E-05   -0.13847E-06  3823   0.931E-03    0.230E-02
RMM:   8    -0.863013032956E-01    0.26304E-05    0.74687E-06  4381   0.300E-03    0.199E-02
RMM:   9    -0.862775271499E-01    0.23776E-04   -0.93496E-06  4460   0.919E-03    0.750E-03
RMM:  10    -0.862732019388E-01    0.43252E-05    0.81276E-06  3950   0.310E-03    0.443E-03
RMM:  11    -0.862714000160E-01    0.18019E-05    0.95758E-06  4431   0.174E-03    0.315E-03
RMM:  12    -0.862699167713E-01    0.14832E-05    0.71095E-06  4545   0.131E-03    0.240E-03
RMM:  13    -0.862688580955E-01    0.10587E-05    0.74611E-06  4690   0.119E-03    0.170E-03
RMM:  14    -0.862689233792E-01   -0.65284E-07    0.83459E-06  4683   0.106E-03    0.106E-03
 first order change of Fermi-energy  5.686255557018072E-002
 force on displaced ion       4 direction 3 :  -0.900  -0.000 -13.603
 Born effective charge ion    4 direction 3 :  -2.387   0.000   0.073
 Linear response progress:
  Degree of freedom:  13/ 60
       N       E                     dE             d eps       ncg     rms          rms(c)
RMM:   1    -0.192582749433E+00   -0.19258E+00   -0.13782E-01  3953   0.109E+00
RMM:   2    -0.184195323913E+00    0.83874E-02   -0.42640E-03  3070   0.330E-01    0.201E-01
RMM:   3    -0.184260590080E+00   -0.65266E-04   -0.96083E-04  3623   0.725E-02    0.157E-01
RMM:   4    -0.184137080646E+00    0.12351E-03   -0.16229E-04  3194   0.378E-02    0.144E-01
RMM:   5    -0.184015750171E+00    0.12133E-03   -0.50904E-05  3126   0.278E-02    0.108E-01
RMM:   6    -0.183857821442E+00    0.15793E-03   -0.15192E-04  3726   0.324E-02    0.485E-02
RMM:   7    -0.183790623546E+00    0.67198E-04   -0.24555E-05  3808   0.175E-02    0.253E-02
RMM:   8    -0.183776616112E+00    0.14007E-04   -0.70405E-06  3419   0.971E-03    0.157E-02
RMM:   9    -0.183774709647E+00    0.19065E-05   -0.18477E-05  3672   0.111E-02    0.982E-03
RMM:  10    -0.183774306802E+00    0.40285E-06   -0.28330E-07  3921   0.443E-03    0.698E-03
 first order change of Fermi-energy -1.670970743232747E-002
 force on displaced ion       5 direction 1 :  -9.546  -0.000  -0.931
 Born effective charge ion    5 direction 1 :  -2.744  -0.000  -0.013
 Linear response progress:
  Degree of freedom:  14/ 60
       N       E                     dE             d eps       ncg     rms          rms(c)
RMM:   1    -0.187348997889E+00   -0.18735E+00   -0.13268E-01  3860   0.107E+00
RMM:   2    -0.180304831806E+00    0.70442E-02   -0.33352E-03  3025   0.322E-01    0.159E-01
RMM:   3    -0.180384207201E+00   -0.79375E-04   -0.61723E-04  3626   0.647E-02    0.136E-01
RMM:   4    -0.180139456456E+00    0.24475E-03   -0.76264E-05  3687   0.243E-02    0.853E-02
RMM:   5    -0.179865458285E+00    0.27400E-03   -0.15691E-04  3798   0.367E-02    0.161E-02
RMM:   6    -0.179856249720E+00    0.92086E-05   -0.10553E-05  3826   0.853E-03    0.106E-02
RMM:   7    -0.179849161147E+00    0.70886E-05   -0.85767E-06  3536   0.766E-03    0.476E-03
RMM:   8    -0.179845635105E+00    0.35260E-05   -0.12146E-06  3993   0.224E-03    0.427E-03
RMM:   9    -0.179835907661E+00    0.97274E-05   -0.45403E-07  3430   0.158E-03    0.237E-03
RMM:  10    -0.179827667348E+00    0.82403E-05   -0.70620E-07  3795   0.162E-03    0.116E-03
RMM:  11    -0.179822543070E+00    0.51243E-05   -0.62247E-07  4050   0.938E-04    0.536E-04
RMM:  12    -0.179823268659E+00   -0.72559E-06   -0.65454E-07  4394   0.464E-04    0.434E-04
 first order change of Fermi-energy  7.004224872630971E-003
 force on displaced ion       5 direction 2 :   0.001  -8.306   0.001
 Born effective charge ion    5 direction 2 :   0.000  -2.374  -0.000
 Linear response progress:
  Degree of freedom:  15/ 60
       N       E                     dE             d eps       ncg     rms          rms(c)
RMM:   1    -0.194610842415E+00   -0.19461E+00   -0.14127E-01  3925   0.109E+00
RMM:   2    -0.186588743594E+00    0.80221E-02   -0.38118E-03  3027   0.326E-01    0.214E-01
RMM:   3    -0.186549279935E+00    0.39464E-04   -0.84119E-04  3325   0.894E-02    0.160E-01
RMM:   4    -0.186461046916E+00    0.88233E-04   -0.64163E-05  3211   0.337E-02    0.136E-01
RMM:   5    -0.186250148403E+00    0.21090E-03   -0.10045E-04  3702   0.287E-02    0.879E-02
RMM:   6    -0.186096913140E+00    0.15324E-03   -0.94019E-05  3745   0.291E-02    0.434E-02
RMM:   7    -0.186012761849E+00    0.84151E-04   -0.26988E-05  3565   0.182E-02    0.170E-02
RMM:   8    -0.185994814148E+00    0.17948E-04   -0.60234E-06  3877   0.593E-03    0.118E-02
RMM:   9    -0.185985022722E+00    0.97914E-05   -0.21835E-06  3920   0.361E-03    0.941E-03
RMM:  10    -0.185972186822E+00    0.12836E-04   -0.16645E-06  3804   0.301E-03    0.655E-03
RMM:  11    -0.185957775754E+00    0.14411E-04   -0.62157E-07  3685   0.287E-03    0.409E-03
RMM:  12    -0.185945981887E+00    0.11794E-04   -0.43956E-07  4039   0.188E-03    0.269E-03
RMM:  13    -0.185939947492E+00    0.60344E-05   -0.76681E-07  4355   0.127E-03    0.188E-03
RMM:  14    -0.185937122915E+00    0.28246E-05   -0.48517E-07  4463   0.988E-04    0.123E-03
RMM:  15    -0.185933888915E+00    0.32340E-05   -0.13031E-06  4376   0.127E-03    0.521E-04
RMM:  16    -0.185933490120E+00    0.39880E-06   -0.11944E-06  5203   0.624E-04    0.389E-04
 first order change of Fermi-energy  2.870294466303935E-002
 force on displaced ion       5 direction 3 :  -0.868  -0.000  -8.052
 Born effective charge ion    5 direction 3 :   0.248  -0.000  -0.027
 Linear response progress:
  Degree of freedom:  16/ 60
       N       E                     dE             d eps       ncg     rms          rms(c)
RMM:   1    -0.192550622429E+00   -0.19255E+00   -0.13751E-01  3953   0.109E+00
RMM:   2    -0.184154748893E+00    0.83959E-02   -0.42693E-03  3068   0.330E-01    0.201E-01
RMM:   3    -0.184234045035E+00   -0.79296E-04   -0.10708E-03  3622   0.724E-02    0.157E-01
RMM:   4    -0.184098594321E+00    0.13545E-03   -0.16635E-04  3194   0.378E-02    0.144E-01
RMM:   5    -0.183979764891E+00    0.11883E-03   -0.52492E-05  3127   0.279E-02    0.108E-01
RMM:   6    -0.183821693025E+00    0.15807E-03   -0.15681E-04  3720   0.324E-02    0.486E-02
RMM:   7    -0.183755855625E+00    0.65837E-04   -0.19109E-05  3821   0.175E-02    0.253E-02
RMM:   8    -0.183741381852E+00    0.14474E-04   -0.68841E-06  3414   0.969E-03    0.157E-02
RMM:   9    -0.183739088052E+00    0.22938E-05   -0.18516E-05  3668   0.110E-02    0.986E-03
RMM:  10    -0.183738558796E+00    0.52926E-06   -0.89471E-08  3947   0.444E-03    0.698E-03
 first order change of Fermi-energy -1.662791318972623E-002
 force on displaced ion       6 direction 1 :  -9.568   0.000   0.930
 Born effective charge ion    6 direction 1 :  -2.743   0.000   0.013
 Linear response progress:
  Degree of freedom:  17/ 60
       N       E                     dE             d eps       ncg     rms          rms(c)
RMM:   1    -0.187363887480E+00   -0.18736E+00   -0.13284E-01  3858   0.107E+00
RMM:   2    -0.180247400821E+00    0.71165E-02   -0.33483E-03  3024   0.322E-01    0.159E-01
RMM:   3    -0.180327989817E+00   -0.80589E-04   -0.63785E-04  3626   0.648E-02    0.136E-01
RMM:   4    -0.180082270609E+00    0.24572E-03   -0.76070E-05  3692   0.243E-02    0.852E-02
RMM:   5    -0.179810104599E+00    0.27217E-03   -0.15691E-04  3799   0.366E-02    0.161E-02
RMM:   6    -0.179800081309E+00    0.10023E-04   -0.11213E-05  3818   0.867E-03    0.104E-02
RMM:   7    -0.179792626296E+00    0.74550E-05   -0.84914E-06  3537   0.755E-03    0.476E-03
RMM:   8    -0.179789242273E+00    0.33840E-05   -0.10558E-06  3989   0.224E-03    0.427E-03
RMM:   9    -0.179779280989E+00    0.99613E-05   -0.78409E-07  3429   0.161E-03    0.233E-03
RMM:  10    -0.179771061764E+00    0.82192E-05   -0.11097E-06  3793   0.164E-03    0.111E-03
RMM:  11    -0.179766318186E+00    0.47436E-05   -0.60952E-07  4092   0.898E-04    0.536E-04
RMM:  12    -0.179767013632E+00   -0.69545E-06   -0.12000E-07  4384   0.463E-04    0.434E-04
 first order change of Fermi-energy  6.991328973815492E-003
 force on displaced ion       6 direction 2 :   0.001  -8.330  -0.001
 Born effective charge ion    6 direction 2 :   0.000  -2.385   0.000
 Linear response progress:
  Degree of freedom:  18/ 60
       N       E                     dE             d eps       ncg     rms          rms(c)
RMM:   1    -0.194603461606E+00   -0.19460E+00   -0.14122E-01  3924   0.109E+00
RMM:   2    -0.186562700223E+00    0.80408E-02   -0.38176E-03  3026   0.326E-01    0.214E-01
RMM:   3    -0.186571094867E+00   -0.83946E-05   -0.84420E-04  3326   0.894E-02    0.160E-01
RMM:   4    -0.186466546783E+00    0.10455E-03   -0.64927E-05  3213   0.337E-02    0.136E-01
RMM:   5    -0.186230618331E+00    0.23593E-03   -0.10528E-04  3712   0.287E-02    0.880E-02
RMM:   6    -0.186125615431E+00    0.10500E-03   -0.95975E-05  3753   0.291E-02    0.435E-02
RMM:   7    -0.186022022685E+00    0.10359E-03   -0.29258E-05  3573   0.182E-02    0.170E-02
RMM:   8    -0.186009800402E+00    0.12222E-04   -0.79871E-06  3887   0.597E-03    0.118E-02
RMM:   9    -0.185992285385E+00    0.17515E-04   -0.24682E-06  3933   0.365E-03    0.940E-03
RMM:  10    -0.185985252492E+00    0.70329E-05   -0.17027E-06  3805   0.307E-03    0.655E-03
RMM:  11    -0.185969524259E+00    0.15728E-04   -0.12219E-06  3704   0.292E-03    0.409E-03
RMM:  12    -0.185959010266E+00    0.10514E-04    0.13922E-06  4057   0.193E-03    0.269E-03
RMM:  13    -0.185952628238E+00    0.63820E-05    0.19502E-07  4398   0.132E-03    0.187E-03
RMM:  14    -0.185949927647E+00    0.27006E-05    0.16399E-07  4499   0.105E-03    0.122E-03
RMM:  15    -0.185946026914E+00    0.39007E-05   -0.17136E-07  4406   0.132E-03    0.521E-04
RMM:  16    -0.185945753902E+00    0.27301E-06   -0.86585E-08  5216   0.684E-04    0.387E-04
 first order change of Fermi-energy  2.512533670873118E-003
 force on displaced ion       6 direction 3 :   0.868  -0.000  -8.080
 Born effective charge ion    6 direction 3 :  -0.247  -0.000  -0.027
 Linear response progress:
  Degree of freedom:  19/ 60
       N       E                     dE             d eps       ncg     rms          rms(c)
RMM:   1    -0.192562529461E+00   -0.19256E+00   -0.13756E-01  3933   0.109E+00
RMM:   2    -0.184171949224E+00    0.83906E-02   -0.42687E-03  3075   0.330E-01    0.201E-01
RMM:   3    -0.184282539686E+00   -0.11059E-03   -0.82420E-04  3618   0.727E-02    0.157E-01
RMM:   4    -0.184109751496E+00    0.17279E-03   -0.16282E-04  3203   0.377E-02    0.144E-01
RMM:   5    -0.184001925815E+00    0.10783E-03   -0.47503E-05  3125   0.278E-02    0.108E-01
RMM:   6    -0.183849305068E+00    0.15262E-03   -0.15115E-04  3733   0.324E-02    0.485E-02
RMM:   7    -0.183783561504E+00    0.65744E-04   -0.30776E-05  3823   0.174E-02    0.253E-02
RMM:   8    -0.183763158772E+00    0.20403E-04   -0.77813E-06  3428   0.978E-03    0.156E-02
RMM:   9    -0.183767084984E+00   -0.39262E-05   -0.22476E-05  3680   0.115E-02    0.936E-03
RMM:  10    -0.183763885931E+00    0.31991E-05   -0.36786E-06  3990   0.402E-03    0.697E-03
RMM:  11    -0.183755600405E+00    0.82855E-05   -0.44518E-06  3631   0.418E-03    0.405E-03
RMM:  12    -0.183748990232E+00    0.66102E-05   -0.33263E-06  4519   0.187E-03    0.230E-03
RMM:  13    -0.183746466790E+00    0.25234E-05   -0.32646E-06  4608   0.132E-03    0.159E-03
RMM:  14    -0.183742477996E+00    0.39888E-05   -0.23779E-06  4466   0.157E-03    0.872E-04
RMM:  15    -0.183740918502E+00    0.15595E-05   -0.40353E-06  5088   0.985E-04    0.664E-04
RMM:  16    -0.183740341544E+00    0.57696E-06   -0.33885E-06  4959   0.868E-04    0.435E-04
 first order change of Fermi-energy -6.173082458071910E-003
 force on displaced ion       7 direction 1 :  -9.043   0.000   0.873
 Born effective charge ion    7 direction 1 :  -2.717   0.000   0.003
 Linear response progress:
  Degree of freedom:  20/ 60
       N       E                     dE             d eps       ncg     rms          rms(c)
RMM:   1    -0.187393217780E+00   -0.18739E+00   -0.13308E-01  3860   0.108E+00
RMM:   2    -0.180251050765E+00    0.71422E-02   -0.33661E-03  3026   0.323E-01    0.160E-01
RMM:   3    -0.180330293698E+00   -0.79243E-04   -0.62706E-04  3626   0.647E-02    0.136E-01
RMM:   4    -0.180088139773E+00    0.24215E-03   -0.76269E-05  3699   0.241E-02    0.859E-02
RMM:   5    -0.179812465818E+00    0.27567E-03   -0.16038E-04  3824   0.369E-02    0.161E-02
RMM:   6    -0.179802777504E+00    0.96883E-05   -0.10604E-05  3825   0.842E-03    0.107E-02
RMM:   7    -0.179795153182E+00    0.76243E-05   -0.90765E-06  3526   0.776E-03    0.476E-03
RMM:   8    -0.179791546509E+00    0.36067E-05   -0.15262E-06  3999   0.226E-03    0.425E-03
RMM:   9    -0.179782085829E+00    0.94607E-05   -0.49383E-07  3426   0.159E-03    0.239E-03
RMM:  10    -0.179774128696E+00    0.79571E-05   -0.44075E-07  3809   0.160E-03    0.119E-03
RMM:  11    -0.179768822639E+00    0.53061E-05   -0.40241E-07  4046   0.965E-04    0.531E-04
RMM:  12    -0.179769505350E+00   -0.68271E-06    0.19515E-08  4388   0.484E-04    0.431E-04
 first order change of Fermi-energy  6.934960795978995E-003
 force on displaced ion       7 direction 2 :  -0.000  -8.337   0.000
 Born effective charge ion    7 direction 2 :   0.000  -2.374  -0.000
 Linear response progress:
  Degree of freedom:  21/ 60
       N       E                     dE             d eps       ncg     rms          rms(c)
RMM:   1    -0.194599025086E+00   -0.19460E+00   -0.14110E-01  3923   0.108E+00
RMM:   2    -0.186558279368E+00    0.80407E-02   -0.38258E-03  3026   0.325E-01    0.214E-01
RMM:   3    -0.186518012186E+00    0.40267E-04   -0.84786E-04  3331   0.895E-02    0.160E-01
RMM:   4    -0.186431584347E+00    0.86428E-04   -0.64229E-05  3210   0.337E-02    0.136E-01
RMM:   5    -0.186222508547E+00    0.20908E-03   -0.10128E-04  3711   0.286E-02    0.881E-02
RMM:   6    -0.186068584067E+00    0.15392E-03   -0.94643E-05  3757   0.292E-02    0.436E-02
RMM:   7    -0.185984951764E+00    0.83632E-04   -0.30492E-05  3559   0.182E-02    0.170E-02
RMM:   8    -0.185966365847E+00    0.18586E-04   -0.85685E-06  3904   0.602E-03    0.119E-02
RMM:   9    -0.185957967275E+00    0.83986E-05   -0.27432E-06  3985   0.356E-03    0.974E-03
RMM:  10    -0.185944564373E+00    0.13403E-04   -0.25043E-06  3955   0.312E-03    0.669E-03
RMM:  11    -0.185929720846E+00    0.14844E-04   -0.11093E-06  3693   0.298E-03    0.416E-03
RMM:  12    -0.185917325265E+00    0.12396E-04   -0.10112E-06  4214   0.204E-03    0.268E-03
RMM:  13    -0.185911142824E+00    0.61824E-05    0.11555E-08  4508   0.136E-03    0.186E-03
RMM:  14    -0.185908310160E+00    0.28327E-05    0.10876E-06  4665   0.110E-03    0.122E-03
RMM:  15    -0.185905186344E+00    0.31238E-05    0.56150E-07  4492   0.134E-03    0.520E-04
RMM:  16    -0.185904741970E+00    0.44437E-06    0.12361E-06  5314   0.771E-04    0.378E-04
 first order change of Fermi-energy  2.840687381735485E-002
 force on displaced ion       7 direction 3 :   0.871  -0.000  -8.102
 Born effective charge ion    7 direction 3 :  -0.249  -0.000  -0.027
 Linear response progress:
  Degree of freedom:  22/ 60
       N       E                     dE             d eps       ncg     rms          rms(c)
RMM:   1    -0.192566636676E+00   -0.19257E+00   -0.13759E-01  3933   0.109E+00
RMM:   2    -0.184213528021E+00    0.83531E-02   -0.42611E-03  3074   0.330E-01    0.201E-01
RMM:   3    -0.184302698142E+00   -0.89170E-04   -0.62701E-04  3620   0.728E-02    0.157E-01
RMM:   4    -0.184148695498E+00    0.15400E-03   -0.16527E-04  3204   0.378E-02    0.144E-01
RMM:   5    -0.184038396159E+00    0.11030E-03   -0.42694E-05  3128   0.278E-02    0.108E-01
RMM:   6    -0.183886083846E+00    0.15231E-03   -0.14695E-04  3733   0.324E-02    0.485E-02
RMM:   7    -0.183819393307E+00    0.66691E-04   -0.35124E-05  3835   0.174E-02    0.253E-02
RMM:   8    -0.183799621284E+00    0.19772E-04   -0.90884E-06  3438   0.979E-03    0.156E-02
RMM:   9    -0.183804047317E+00   -0.44260E-05   -0.21411E-05  3702   0.115E-02    0.937E-03
RMM:  10    -0.183801146635E+00    0.29007E-05   -0.49175E-06  3998   0.407E-03    0.696E-03
RMM:  11    -0.183792671005E+00    0.84756E-05   -0.42911E-06  3661   0.420E-03    0.404E-03
RMM:  12    -0.183786060604E+00    0.66104E-05   -0.57185E-06  4575   0.192E-03    0.231E-03
RMM:  13    -0.183783630067E+00    0.24305E-05   -0.45109E-06  4624   0.138E-03    0.160E-03
RMM:  14    -0.183779487610E+00    0.41425E-05   -0.48093E-06  4483   0.163E-03    0.870E-04
RMM:  15    -0.183777921083E+00    0.15665E-05   -0.55006E-06  5170   0.105E-03    0.660E-04
RMM:  16    -0.183777161955E+00    0.75913E-06   -0.30530E-06  5030   0.934E-04    0.433E-04
 first order change of Fermi-energy -5.763528928581785E-003
 force on displaced ion       8 direction 1 :  -9.043  -0.000  -0.878
 Born effective charge ion    8 direction 1 :  -2.716  -0.000  -0.003
 Linear response progress:
  Degree of freedom:  23/ 60
       N       E                     dE             d eps       ncg     rms          rms(c)
RMM:   1    -0.187376254126E+00   -0.18738E+00   -0.13290E-01  3862   0.108E+00
RMM:   2    -0.180305614091E+00    0.70706E-02   -0.33354E-03  3022   0.322E-01    0.160E-01
RMM:   3    -0.180388178104E+00   -0.82564E-04   -0.63550E-04  3626   0.649E-02    0.136E-01
RMM:   4    -0.180144902144E+00    0.24328E-03   -0.73277E-05  3704   0.240E-02    0.860E-02
RMM:   5    -0.179868684467E+00    0.27622E-03   -0.15947E-04  3832   0.369E-02    0.162E-02
RMM:   6    -0.179859138346E+00    0.95461E-05   -0.10298E-05  3816   0.850E-03    0.106E-02
RMM:   7    -0.179851957176E+00    0.71812E-05   -0.82028E-06  3530   0.754E-03    0.533E-03
RMM:   8    -0.179849812335E+00    0.21448E-05   -0.10546E-06  3934   0.236E-03    0.423E-03
RMM:   9    -0.179838799460E+00    0.11013E-04   -0.45514E-07  3526   0.167E-03    0.235E-03
RMM:  10    -0.179829148500E+00    0.96510E-05   -0.78494E-07  3837   0.172E-03    0.105E-03
RMM:  11    -0.179825333265E+00    0.38152E-05   -0.65764E-07  4305   0.745E-04    0.557E-04
RMM:  12    -0.179825830326E+00   -0.49706E-06   -0.79284E-07  4835   0.368E-04    0.464E-04
 first order change of Fermi-energy  7.169777624738138E-003
 force on displaced ion       8 direction 2 :  -0.001  -8.328  -0.001
 Born effective charge ion    8 direction 2 :   0.000  -2.371   0.000
 Linear response progress:
  Degree of freedom:  24/ 60
       N       E                     dE             d eps       ncg     rms          rms(c)
RMM:   1    -0.194603274487E+00   -0.19460E+00   -0.14113E-01  3923   0.108E+00
RMM:   2    -0.186594831964E+00    0.80084E-02   -0.38265E-03  3028   0.326E-01    0.214E-01
RMM:   3    -0.186603698560E+00   -0.88666E-05   -0.84072E-04  3329   0.894E-02    0.160E-01
RMM:   4    -0.186495933378E+00    0.10777E-03   -0.65042E-05  3212   0.337E-02    0.136E-01
RMM:   5    -0.186261392700E+00    0.23454E-03   -0.10340E-04  3720   0.286E-02    0.881E-02
RMM:   6    -0.186155404950E+00    0.10599E-03   -0.97173E-05  3763   0.292E-02    0.436E-02
RMM:   7    -0.186049607104E+00    0.10580E-03   -0.26497E-05  3563   0.182E-02    0.171E-02
RMM:   8    -0.186039054135E+00    0.10553E-04   -0.59945E-06  3917   0.607E-03    0.119E-02
RMM:   9    -0.186022123080E+00    0.16931E-04   -0.18999E-06  3987   0.360E-03    0.975E-03
RMM:  10    -0.186014404696E+00    0.77184E-05   -0.15050E-06  3956   0.316E-03    0.669E-03
RMM:  11    -0.185999261560E+00    0.15143E-04   -0.86547E-08  3710   0.302E-03    0.416E-03
RMM:  12    -0.185987732988E+00    0.11529E-04    0.25028E-06  4229   0.209E-03    0.268E-03
RMM:  13    -0.185981481958E+00    0.62510E-05    0.21445E-06  4530   0.141E-03    0.186E-03
RMM:  14    -0.185978610279E+00    0.28717E-05    0.27013E-06  4687   0.116E-03    0.122E-03
RMM:  15    -0.185974831941E+00    0.37783E-05    0.13683E-06  4502   0.139E-03    0.520E-04
RMM:  16    -0.185974504075E+00    0.32787E-06    0.21135E-06  5327   0.826E-04    0.379E-04
 first order change of Fermi-energy  2.645092097708357E-003
 force on displaced ion       8 direction 3 :  -0.877  -0.000  -8.087
 Born effective charge ion    8 direction 3 :   0.248  -0.000  -0.027
 Linear response progress:
  Degree of freedom:  25/ 60
       N       E                     dE             d eps       ncg     rms          rms(c)
RMM:   1    -0.189926439294E+00   -0.18993E+00   -0.12598E-01  3870   0.101E+00
RMM:   2    -0.184018063092E+00    0.59084E-02   -0.31361E-03  3125   0.254E-01    0.176E-01
RMM:   3    -0.183891812185E+00    0.12625E-03   -0.74266E-04  3696   0.621E-02    0.137E-01
RMM:   4    -0.183833568923E+00    0.58243E-04   -0.10230E-04  3109   0.326E-02    0.121E-01
RMM:   5    -0.183739648617E+00    0.93920E-04   -0.36003E-05  3260   0.213E-02    0.913E-02
RMM:   6    -0.183575324754E+00    0.16432E-03   -0.20696E-04  3937   0.374E-02    0.282E-02
RMM:   7    -0.183557542298E+00    0.17782E-04   -0.83470E-06  3817   0.987E-03    0.197E-02
RMM:   8    -0.183548121378E+00    0.94209E-05   -0.58213E-06  3185   0.851E-03    0.129E-02
RMM:   9    -0.183550228363E+00   -0.21070E-05   -0.14775E-05  3600   0.986E-03    0.838E-03
RMM:  10    -0.183549228692E+00    0.99967E-06   -0.29119E-06  3641   0.468E-03    0.503E-03
 first order change of Fermi-energy -1.490111575748188E-002
 force on displaced ion       9 direction 1 :  -7.138  -0.000  -0.007
 Born effective charge ion    9 direction 1 :  -4.588   0.000   0.000
 Linear response progress:
  Degree of freedom:  26/ 60
       N       E                     dE             d eps       ncg     rms          rms(c)
RMM:   1    -0.186276132701E+00   -0.18628E+00   -0.12533E-01  3803   0.978E-01
RMM:   2    -0.181334634709E+00    0.49415E-02   -0.30832E-03  3075   0.240E-01    0.153E-01
RMM:   3    -0.181325072727E+00    0.95620E-05   -0.37968E-04  3717   0.431E-02    0.129E-01
RMM:   4    -0.181045178038E+00    0.27989E-03   -0.82727E-05  3622   0.232E-02    0.751E-02
RMM:   5    -0.180779017751E+00    0.26616E-03   -0.12154E-04  3717   0.298E-02    0.156E-02
RMM:   6    -0.180769672636E+00    0.93451E-05   -0.34491E-06  3853   0.548E-03    0.138E-02
RMM:   7    -0.180747802576E+00    0.21870E-04   -0.37002E-06  3628   0.498E-03    0.682E-03
RMM:   8    -0.180736016209E+00    0.11786E-04   -0.18002E-06  3680   0.329E-03    0.351E-03
RMM:   9    -0.180733419972E+00    0.25962E-05   -0.14488E-08  3663   0.112E-03    0.276E-03
RMM:  10    -0.180724730304E+00    0.86897E-05   -0.34541E-07  3520   0.136E-03    0.145E-03
RMM:  11    -0.180715461767E+00    0.92685E-05   -0.25243E-07  3805   0.111E-03    0.486E-04
RMM:  12    -0.180715915063E+00   -0.45330E-06   -0.42532E-08  4505   0.335E-04    0.395E-04
 first order change of Fermi-energy  3.700307802390057E-005
 force on displaced ion       9 direction 2 :  -0.000  -4.795   0.000
 Born effective charge ion    9 direction 2 :  -0.000  -5.775  -0.000
 Linear response progress:
  Degree of freedom:  27/ 60
       N       E                     dE             d eps       ncg     rms          rms(c)
RMM:   1    -0.191317863028E+00   -0.19132E+00   -0.13053E-01  3898   0.998E-01
RMM:   2    -0.184782050662E+00    0.65358E-02   -0.35751E-03  3113   0.253E-01    0.168E-01
RMM:   3    -0.184801464255E+00   -0.19414E-04   -0.50979E-04  3668   0.495E-02    0.125E-01
RMM:   4    -0.184678296926E+00    0.12317E-03   -0.64463E-05  3855   0.194E-02    0.924E-02
RMM:   5    -0.184547763224E+00    0.13053E-03   -0.67571E-05  3650   0.241E-02    0.495E-02
RMM:   6    -0.184460497188E+00    0.87266E-04   -0.32408E-05  3578   0.175E-02    0.201E-02
RMM:   7    -0.184451921850E+00    0.85753E-05   -0.62741E-06  3531   0.754E-03    0.141E-02
RMM:   8    -0.184435153645E+00    0.16768E-04   -0.91001E-06  3781   0.639E-03    0.962E-03
RMM:   9    -0.184437609265E+00   -0.24556E-05   -0.64612E-07  3681   0.260E-03    0.734E-03
RMM:  10    -0.184431490488E+00    0.61188E-05    0.29377E-06  3496   0.223E-03    0.518E-03
RMM:  11    -0.184420652123E+00    0.10838E-04    0.31934E-06  3899   0.201E-03    0.279E-03
RMM:  12    -0.184416589172E+00    0.40630E-05    0.39859E-06  3815   0.924E-04    0.169E-03
RMM:  13    -0.184411449642E+00    0.51395E-05    0.40986E-06  3952   0.818E-04    0.808E-04
RMM:  14    -0.184410505226E+00    0.94442E-06    0.41695E-06  4309   0.421E-04    0.551E-04
 first order change of Fermi-energy  9.102446826547705E-003
 force on displaced ion       9 direction 3 :  -0.009  -0.000  -9.050
 Born effective charge ion    9 direction 3 :  -0.009  -0.000  -0.063
 Linear response progress:
  Degree of freedom:  28/ 60
       N       E                     dE             d eps       ncg     rms          rms(c)
RMM:   1    -0.189923717037E+00   -0.18992E+00   -0.12593E-01  3872   0.101E+00
RMM:   2    -0.184027656083E+00    0.58961E-02   -0.31361E-03  3128   0.254E-01    0.176E-01
RMM:   3    -0.183895557792E+00    0.13210E-03   -0.74020E-04  3695   0.619E-02    0.137E-01
RMM:   4    -0.183840982860E+00    0.54575E-04   -0.10158E-04  3106   0.325E-02    0.121E-01
RMM:   5    -0.183746540929E+00    0.94442E-04   -0.36180E-05  3277   0.213E-02    0.912E-02
RMM:   6    -0.183581622713E+00    0.16492E-03   -0.20289E-04  3929   0.372E-02    0.282E-02
RMM:   7    -0.183563478344E+00    0.18144E-04   -0.84126E-06  3827   0.992E-03    0.197E-02
RMM:   8    -0.183554267424E+00    0.92109E-05   -0.56045E-06  3186   0.848E-03    0.127E-02
RMM:   9    -0.183556605560E+00   -0.23381E-05   -0.15082E-05  3604   0.100E-02    0.832E-03
RMM:  10    -0.183555737585E+00    0.86798E-06   -0.27573E-06  3642   0.455E-03    0.503E-03
 first order change of Fermi-energy -1.536934178965055E-002
 force on displaced ion      10 direction 1 :  -7.132   0.000  -0.007
 Born effective charge ion   10 direction 1 :  -4.589   0.000   0.000
 Linear response progress:
  Degree of freedom:  29/ 60
       N       E                     dE             d eps       ncg     rms          rms(c)
RMM:   1    -0.186276637124E+00   -0.18628E+00   -0.12533E-01  3802   0.978E-01
RMM:   2    -0.181348172323E+00    0.49285E-02   -0.30799E-03  3075   0.240E-01    0.153E-01
RMM:   3    -0.181338841689E+00    0.93306E-05   -0.37910E-04  3716   0.431E-02    0.129E-01
RMM:   4    -0.181058980188E+00    0.27986E-03   -0.82633E-05  3621   0.232E-02    0.751E-02
RMM:   5    -0.180792998097E+00    0.26598E-03   -0.12137E-04  3714   0.298E-02    0.156E-02
RMM:   6    -0.180783601428E+00    0.93967E-05   -0.34498E-06  3859   0.548E-03    0.138E-02
RMM:   7    -0.180761669207E+00    0.21932E-04   -0.37009E-06  3627   0.498E-03    0.681E-03
RMM:   8    -0.180749850361E+00    0.11819E-04   -0.17915E-06  3674   0.328E-03    0.350E-03
RMM:   9    -0.180747253016E+00    0.25973E-05   -0.98656E-09  3659   0.111E-03    0.276E-03
RMM:  10    -0.180738550520E+00    0.87025E-05   -0.27553E-07  3529   0.136E-03    0.145E-03
RMM:  11    -0.180729316007E+00    0.92345E-05   -0.20314E-07  3798   0.110E-03    0.486E-04
RMM:  12    -0.180729767249E+00   -0.45124E-06    0.19082E-08  4498   0.333E-04    0.394E-04
 first order change of Fermi-energy  2.528743635155095E-004
 force on displaced ion      10 direction 2 :   0.001  -4.770   0.000
 Born effective charge ion   10 direction 2 :  -0.000  -5.765   0.000
 Linear response progress:
  Degree of freedom:  30/ 60
       N       E                     dE             d eps       ncg     rms          rms(c)
RMM:   1    -0.191323772915E+00   -0.19132E+00   -0.13058E-01  3899   0.998E-01
RMM:   2    -0.184819588997E+00    0.65042E-02   -0.35814E-03  3115   0.253E-01    0.168E-01
RMM:   3    -0.184842460163E+00   -0.22871E-04   -0.50735E-04  3666   0.494E-02    0.125E-01
RMM:   4    -0.184720721333E+00    0.12174E-03   -0.63960E-05  3854   0.195E-02    0.923E-02
RMM:   5    -0.184590973788E+00    0.12975E-03   -0.66583E-05  3644   0.241E-02    0.494E-02
RMM:   6    -0.184514593373E+00    0.76380E-04   -0.31679E-05  3577   0.175E-02    0.202E-02
RMM:   7    -0.184496067378E+00    0.18526E-04   -0.62835E-06  3529   0.755E-03    0.143E-02
RMM:   8    -0.184488385737E+00    0.76816E-05   -0.91749E-06  3772   0.645E-03    0.979E-03
RMM:   9    -0.184484679781E+00    0.37060E-05   -0.10956E-06  3680   0.264E-03    0.735E-03
RMM:  10    -0.184479465119E+00    0.52147E-05   -0.65333E-07  3502   0.223E-03    0.518E-03
RMM:  11    -0.184469610931E+00    0.98542E-05   -0.93099E-07  3888   0.198E-03    0.279E-03
RMM:  12    -0.184464472562E+00    0.51384E-05   -0.14032E-07  3803   0.907E-04    0.169E-03
RMM:  13    -0.184459594329E+00    0.48782E-05   -0.25532E-07  3941   0.802E-04    0.818E-04
RMM:  14    -0.184458574120E+00    0.10202E-05   -0.96306E-08  4258   0.396E-04    0.591E-04
RMM:  15    -0.184457943353E+00    0.63077E-06   -0.11054E-07  4449   0.278E-04    0.424E-04
 first order change of Fermi-energy -5.725651636010465E-002
 force on displaced ion      10 direction 3 :  -0.002  -0.000  -8.992
 Born effective charge ion   10 direction 3 :   0.004  -0.000  -0.063
 Linear response progress:
  Degree of freedom:  31/ 60
       N       E                     dE             d eps       ncg     rms          rms(c)
RMM:   1    -0.541833311847E-01   -0.54183E-01    0.58434E-02  6044   0.486E-01
RMM:   2    -0.524144231850E-01    0.17689E-02   -0.27931E-03  3427   0.202E-01    0.907E-02
RMM:   3    -0.524824390290E-01   -0.68016E-04   -0.33789E-04  3821   0.489E-02    0.779E-02
RMM:   4    -0.524754818516E-01    0.69572E-05   -0.27570E-05  3881   0.157E-02    0.733E-02
RMM:   5    -0.524663136165E-01    0.91682E-05   -0.38179E-06  3398   0.106E-02    0.651E-02
RMM:   6    -0.524379022350E-01    0.28411E-04   -0.47866E-05  3958   0.187E-02    0.319E-02
RMM:   7    -0.524301350750E-01    0.77672E-05   -0.14938E-05  3497   0.138E-02    0.187E-02
RMM:   8    -0.524306097592E-01   -0.47468E-06   -0.18564E-06  3359   0.527E-03    0.125E-02
 first order change of Fermi-energy -2.551392159677590E-003
 force on displaced ion      11 direction 1 :  -4.664  -0.000  -0.289
 Born effective charge ion   11 direction 1 :  -0.029   0.000   0.022
 Linear response progress:
  Degree of freedom:  32/ 60
       N       E                     dE             d eps       ncg     rms          rms(c)
RMM:   1    -0.350557242304E-01   -0.35056E-01    0.58643E-02  5830   0.470E-01
RMM:   2    -0.343802956131E-01    0.67543E-03   -0.28560E-03  3475   0.199E-01    0.736E-02
RMM:   3    -0.344765775291E-01   -0.96282E-04   -0.36904E-04  3921   0.452E-02    0.743E-02
RMM:   4    -0.344650201696E-01    0.11557E-04   -0.15824E-05  4039   0.107E-02    0.741E-02
RMM:   5    -0.342920333582E-01    0.17299E-03   -0.11141E-04  3962   0.249E-02    0.164E-02
RMM:   6    -0.342670008653E-01    0.25032E-04   -0.70263E-06  3982   0.648E-03    0.174E-02
RMM:   7    -0.342718757960E-01   -0.48749E-05   -0.42655E-07  3952   0.188E-03    0.161E-02
RMM:   8    -0.342944613689E-01   -0.22586E-04   -0.28325E-06  3762   0.385E-03    0.859E-03
RMM:   9    -0.343185438960E-01   -0.24083E-04   -0.36978E-06  4064   0.427E-03    0.338E-03
RMM:  10    -0.343174671295E-01    0.10768E-05   -0.15595E-07  3591   0.120E-03    0.251E-03
RMM:  11    -0.343154541074E-01    0.20130E-05   -0.71497E-08  3918   0.668E-04    0.115E-03
RMM:  12    -0.343134729632E-01    0.19811E-05   -0.10363E-07  4177   0.476E-04    0.350E-04
RMM:  13    -0.343131258507E-01    0.34711E-06   -0.16693E-07  4930   0.206E-04    0.268E-04
 first order change of Fermi-energy  1.550097586746624E-002
 force on displaced ion      11 direction 2 :   0.002  -6.133   0.000
 Born effective charge ion   11 direction 2 :  -0.001  -0.903  -0.001
 Linear response progress:
  Degree of freedom:  33/ 60
       N       E                     dE             d eps       ncg     rms          rms(c)
RMM:   1    -0.552875861302E-01   -0.55288E-01    0.63501E-02  6104   0.506E-01
RMM:   2    -0.525458343790E-01    0.27418E-02   -0.37572E-03  3382   0.213E-01    0.143E-01
RMM:   3    -0.526277687771E-01   -0.81934E-04   -0.52623E-04  3673   0.649E-02    0.129E-01
RMM:   4    -0.526100333690E-01    0.17735E-04   -0.46189E-05  3624   0.222E-02    0.128E-01
RMM:   5    -0.526084789771E-01    0.15544E-05   -0.10624E-05  3893   0.737E-03    0.124E-01
RMM:   6    -0.526105071219E-01   -0.20281E-05   -0.26487E-05  3952   0.139E-02    0.902E-02
RMM:   7    -0.526098069989E-01    0.70012E-06   -0.87091E-05  5098   0.297E-02    0.476E-02
RMM:   8    -0.525917278493E-01    0.18079E-04   -0.79790E-06  3492   0.103E-02    0.313E-02
RMM:   9    -0.525890187310E-01    0.27091E-05    0.43881E-07  3195   0.533E-03    0.247E-02
RMM:  10    -0.525866748960E-01    0.23438E-05   -0.53237E-06  3936   0.779E-03    0.117E-02
RMM:  11    -0.525846603288E-01    0.20146E-05    0.50869E-06  3434   0.376E-03    0.718E-03
RMM:  12    -0.525823970614E-01    0.22633E-05    0.65969E-06  3398   0.254E-03    0.469E-03
RMM:  13    -0.525800831473E-01    0.23139E-05    0.58087E-06  3986   0.172E-03    0.277E-03
RMM:  14    -0.525800495724E-01    0.33575E-07    0.48820E-06  3785   0.958E-04    0.237E-03
 first order change of Fermi-energy -3.791184910684198E-002
 force on displaced ion      11 direction 3 :   0.298  -0.000  -8.571
 Born effective charge ion   11 direction 3 :   0.124  -0.000  -0.021
 Linear response progress:
  Degree of freedom:  34/ 60
       N       E                     dE             d eps       ncg     rms          rms(c)
RMM:   1    -0.541993902513E-01   -0.54199E-01    0.58257E-02  6044   0.486E-01
RMM:   2    -0.523940910317E-01    0.18053E-02   -0.27065E-03  3426   0.203E-01    0.908E-02
RMM:   3    -0.524726636463E-01   -0.78573E-04   -0.35289E-04  3819   0.490E-02    0.779E-02
RMM:   4    -0.524626407268E-01    0.10023E-04   -0.32342E-05  3882   0.157E-02    0.733E-02
[...]
RMM:   6    -0.524291344581E-01    0.27935E-04   -0.48301E-05  3948   0.188E-02    0.316E-02
RMM:   7    -0.524187631020E-01    0.10371E-04   -0.13995E-05  3488   0.136E-02    0.186E-02
RMM:   8    -0.524203132835E-01   -0.15502E-05   -0.20309E-06  3363   0.528E-03    0.124E-02
RMM:   9    -0.524298680031E-01   -0.95547E-05   -0.71114E-06  3606   0.820E-03    0.547E-03
RMM:  10    -0.524340066728E-01   -0.41387E-05   -0.13000E-06  3690   0.313E-03    0.381E-03
RMM:  11    -0.524345231323E-01   -0.51646E-06   -0.56985E-07  3942   0.160E-03    0.249E-03
 first order change of Fermi-energy  8.205066632394065E-003
 force on displaced ion      16 direction 1 :  -4.887   0.000   0.225
 Born effective charge ion   16 direction 1 :  -0.012   0.000   0.015
 Linear response progress:
  Degree of freedom:  47/ 60
       N       E                     dE             d eps       ncg     rms          rms(c)
RMM:   1    -0.350624826055E-01   -0.35062E-01    0.58616E-02  5855   0.474E-01
RMM:   2    -0.343800373975E-01    0.68245E-03   -0.28719E-03  3479   0.199E-01    0.736E-02
RMM:   3    -0.344756788787E-01   -0.95641E-04   -0.36468E-04  3919   0.451E-02    0.744E-02
RMM:   4    -0.344642257953E-01    0.11453E-04   -0.15701E-05  4041   0.106E-02    0.742E-02
RMM:   5    -0.342965416940E-01    0.16768E-03   -0.10389E-04  3944   0.241E-02    0.174E-02
RMM:   6    -0.342663103047E-01    0.30231E-04   -0.83730E-06  3952   0.704E-03    0.177E-02
RMM:   7    -0.342710434625E-01   -0.47332E-05   -0.48567E-07  3987   0.199E-03    0.164E-02
RMM:   8    -0.342919556933E-01   -0.20912E-04   -0.23631E-06  3664   0.356E-03    0.914E-03
RMM:   9    -0.343179098084E-01   -0.25954E-04   -0.42425E-06  4126   0.456E-03    0.360E-03
RMM:  10    -0.343169999519E-01    0.90986E-06    0.41809E-09  3597   0.124E-03    0.274E-03
 first order change of Fermi-energy  1.559527917767145E-002
 force on displaced ion      16 direction 2 :  -0.003  -6.425  -0.000
 Born effective charge ion   16 direction 2 :   0.000  -0.900   0.000
 Linear response progress:
  Degree of freedom:  48/ 60
       N       E                     dE             d eps       ncg     rms          rms(c)
RMM:   1    -0.552303088464E-01   -0.55230E-01    0.64185E-02  6101   0.510E-01
RMM:   2    -0.525975509499E-01    0.26328E-02   -0.36789E-03  3377   0.213E-01    0.143E-01
RMM:   3    -0.526584839032E-01   -0.60933E-04   -0.48325E-04  3681   0.648E-02    0.130E-01
RMM:   4    -0.526592708269E-01   -0.78692E-06   -0.46233E-05  3643   0.221E-02    0.128E-01
RMM:   5    -0.526552765473E-01    0.39943E-05   -0.51687E-06  3897   0.723E-03    0.125E-01
RMM:   6    -0.526536970245E-01    0.15795E-05   -0.30966E-06  3953   0.135E-02    0.914E-02
RMM:   7    -0.526566397029E-01   -0.29427E-05   -0.83650E-05  5145   0.299E-02    0.482E-02
RMM:   8    -0.526416017302E-01    0.15038E-04   -0.12786E-05  3527   0.104E-02    0.318E-02
RMM:   9    -0.526395462928E-01    0.20554E-05   -0.13115E-06  3257   0.520E-03    0.252E-02
RMM:  10    -0.526346523853E-01    0.48939E-05   -0.96081E-06  3968   0.778E-03    0.119E-02
RMM:  11    -0.526325024409E-01    0.21499E-05    0.30641E-06  3484   0.386E-03    0.711E-03
RMM:  12    -0.526304687492E-01    0.20337E-05    0.56463E-06  3532   0.253E-03    0.463E-03
RMM:  13    -0.526291466564E-01    0.13221E-05    0.44791E-06  4109   0.169E-03    0.277E-03
RMM:  14    -0.526286978352E-01    0.44882E-06    0.56691E-06  4168   0.984E-04    0.243E-03
 first order change of Fermi-energy  6.872467432561535E-002
 force on displaced ion      16 direction 3 :   0.304  -0.000  -8.572
 Born effective charge ion   16 direction 3 :   0.130  -0.000  -0.021
 Linear response progress:
  Degree of freedom:  49/ 60
       N       E                     dE             d eps       ncg     rms          rms(c)
RMM:   1    -0.530530348115E-01   -0.53053E-01    0.78170E-02  5956   0.524E-01
RMM:   2    -0.521046973768E-01    0.94834E-03   -0.30079E-03  3406   0.223E-01    0.859E-02
RMM:   3    -0.521940798230E-01   -0.89382E-04   -0.45374E-04  3891   0.532E-02    0.816E-02
RMM:   4    -0.521879539188E-01    0.61259E-05   -0.20653E-05  3976   0.126E-02    0.783E-02
RMM:   5    -0.521622826024E-01    0.25671E-04   -0.10242E-05  3413   0.106E-02    0.681E-02
RMM:   6    -0.521147241526E-01    0.47558E-04   -0.70959E-05  4524   0.212E-02    0.278E-02
RMM:   7    -0.520876694566E-01    0.27055E-04   -0.11268E-05  3402   0.125E-02    0.149E-02
RMM:   8    -0.520935791241E-01   -0.59097E-05   -0.17225E-06  3515   0.389E-03    0.121E-02
RMM:   9    -0.521071568954E-01   -0.13578E-04   -0.34026E-06  3355   0.479E-03    0.839E-03
RMM:  10    -0.521285461063E-01   -0.21389E-04   -0.71737E-06  3894   0.675E-03    0.403E-03
RMM:  11    -0.521245462946E-01    0.39998E-05   -0.50517E-07  3341   0.210E-03    0.307E-03
RMM:  12    -0.521251163954E-01   -0.57010E-06   -0.10735E-07  4083   0.119E-03    0.191E-03
 first order change of Fermi-energy -1.587947832517589E-002
 force on displaced ion      17 direction 1 :  -7.290   0.000   1.247
 Born effective charge ion   17 direction 1 :   1.002  -0.000  -0.004
 Linear response progress:
  Degree of freedom:  50/ 60
       N       E                     dE             d eps       ncg     rms          rms(c)
RMM:   1    -0.351630159985E-01   -0.35163E-01    0.43682E-02  5671   0.413E-01
RMM:   2    -0.347394557937E-01    0.42356E-03   -0.21930E-03  3671   0.153E-01    0.764E-02
RMM:   3    -0.347647414055E-01   -0.25286E-04   -0.16755E-04  3877   0.318E-02    0.630E-02
RMM:   4    -0.347271125034E-01    0.37629E-04   -0.12654E-05  3996   0.900E-03    0.534E-02
RMM:   5    -0.345704959329E-01    0.15662E-03   -0.91241E-05  4012   0.213E-02    0.131E-02
RMM:   6    -0.345702849472E-01    0.21099E-06   -0.26368E-06  4001   0.438E-03    0.124E-02
 first order change of Fermi-energy  1.552106504272288E-002
 force on displaced ion      17 direction 2 :  -0.008  -2.502  -0.007
 Born effective charge ion   17 direction 2 :  -0.001   0.033  -0.002
 Linear response progress:
  Degree of freedom:  51/ 60
       N       E                     dE             d eps       ncg     rms          rms(c)
RMM:   1    -0.561524192853E-01   -0.56152E-01    0.61803E-02  6067   0.505E-01
RMM:   2    -0.532498853848E-01    0.29025E-02   -0.33272E-03  3500   0.204E-01    0.153E-01
RMM:   3    -0.532694288076E-01   -0.19543E-04   -0.63910E-04  3841   0.543E-02    0.143E-01
RMM:   4    -0.532653736235E-01    0.40552E-05   -0.58003E-05  3645   0.215E-02    0.138E-01
RMM:   5    -0.532543134262E-01    0.11060E-04   -0.15581E-05  3458   0.114E-02    0.130E-01
RMM:   6    -0.532114015116E-01    0.42912E-04   -0.21277E-04  4338   0.291E-02    0.713E-02
RMM:   7    -0.532196730243E-01   -0.82715E-05   -0.61595E-05  4226   0.227E-02    0.387E-02
RMM:   8    -0.532032182723E-01    0.16455E-04   -0.13026E-05  3330   0.771E-03    0.314E-02
RMM:   9    -0.532014176232E-01    0.18006E-05   -0.72017E-06  3353   0.967E-03    0.221E-02
RMM:  10    -0.531945574369E-01    0.68602E-05   -0.21015E-05  3944   0.105E-02    0.116E-02
RMM:  11    -0.531903639678E-01    0.41935E-05   -0.48680E-06  3689   0.374E-03    0.719E-03
RMM:  12    -0.531878655016E-01    0.24985E-05   -0.46392E-06  4270   0.203E-03    0.387E-03
RMM:  13    -0.531869703641E-01    0.89514E-06   -0.48243E-06  4504   0.122E-03    0.229E-03
 first order change of Fermi-energy -1.864776280864344E-002
 force on displaced ion      17 direction 3 :   1.195  -0.000 -11.797
 Born effective charge ion   17 direction 3 :   0.090   0.000   0.024
 Linear response progress:
  Degree of freedom:  52/ 60
       N       E                     dE             d eps       ncg     rms          rms(c)
RMM:   1    -0.530560900180E-01   -0.53056E-01    0.78167E-02  5958   0.524E-01
RMM:   2    -0.521117396229E-01    0.94435E-03   -0.30052E-03  3403   0.223E-01    0.860E-02
RMM:   3    -0.522019239570E-01   -0.90184E-04   -0.45394E-04  3891   0.532E-02    0.816E-02
RMM:   4    -0.521956715607E-01    0.62524E-05   -0.20377E-05  3975   0.126E-02    0.783E-02
RMM:   5    -0.521709968152E-01    0.24675E-04   -0.94555E-06  3413   0.107E-02    0.682E-02
RMM:   6    -0.521222503139E-01    0.48747E-04   -0.71624E-05  4515   0.212E-02    0.278E-02
RMM:   7    -0.520964098890E-01    0.25840E-04   -0.11628E-05  3407   0.125E-02    0.149E-02
RMM:   8    -0.521019577084E-01   -0.55478E-05   -0.21532E-06  3536   0.390E-03    0.121E-02
RMM:   9    -0.521153946924E-01   -0.13437E-04   -0.29020E-06  3362   0.479E-03    0.838E-03
RMM:  10    -0.521364515640E-01   -0.21057E-04   -0.69992E-06  3876   0.672E-03    0.401E-03
RMM:  11    -0.521326667817E-01    0.37848E-05   -0.57047E-07  3370   0.209E-03    0.306E-03
RMM:  12    -0.521331325393E-01   -0.46576E-06   -0.15349E-07  4114   0.118E-03    0.195E-03
 first order change of Fermi-energy -1.582597338309899E-002
 force on displaced ion      18 direction 1 :  -7.279  -0.000  -1.257
 Born effective charge ion   18 direction 1 :   1.002   0.000   0.004
 Linear response progress:
  Degree of freedom:  53/ 60
       N       E                     dE             d eps       ncg     rms          rms(c)
RMM:   1    -0.351549977787E-01   -0.35155E-01    0.43784E-02  5671   0.413E-01
RMM:   2    -0.347447754444E-01    0.41022E-03   -0.21882E-03  3671   0.152E-01    0.764E-02
RMM:   3    -0.347699482651E-01   -0.25173E-04   -0.16709E-04  3878   0.317E-02    0.630E-02
RMM:   4    -0.347322119767E-01    0.37736E-04   -0.12437E-05  3995   0.898E-03    0.534E-02
RMM:   5    -0.345747419812E-01    0.15747E-03   -0.90840E-05  4018   0.213E-02    0.131E-02
RMM:   6    -0.345745299786E-01    0.21200E-06   -0.25934E-06  3999   0.438E-03    0.124E-02
 first order change of Fermi-energy  1.549464077614804E-002
 force on displaced ion      18 direction 2 :  -0.008  -2.492   0.007
 Born effective charge ion   18 direction 2 :  -0.001   0.043   0.002
 Linear response progress:
  Degree of freedom:  54/ 60
       N       E                     dE             d eps       ncg     rms          rms(c)
RMM:   1    -0.561521328365E-01   -0.56152E-01    0.61811E-02  6066   0.505E-01
RMM:   2    -0.532921776101E-01    0.28600E-02   -0.32960E-03  3503   0.204E-01    0.153E-01
RMM:   3    -0.532586242383E-01    0.33553E-04   -0.45916E-04  3836   0.543E-02    0.143E-01
RMM:   4    -0.533062233981E-01   -0.47599E-04   -0.58172E-05  3648   0.214E-02    0.138E-01
RMM:   5    -0.532815331869E-01    0.24690E-04   -0.66583E-06  3458   0.114E-02    0.130E-01
RMM:   6    -0.532086945609E-01    0.72839E-04   -0.69313E-05  4345   0.292E-02    0.712E-02
RMM:   7    -0.532511057115E-01   -0.42411E-04   -0.68706E-05  4223   0.226E-02    0.387E-02
RMM:   8    -0.532285771199E-01    0.22529E-04   -0.48684E-06  3334   0.768E-03    0.314E-02
RMM:   9    -0.532340410819E-01   -0.54640E-05   -0.80467E-06  3352   0.968E-03    0.221E-02
RMM:  10    -0.532248358161E-01    0.92053E-05   -0.92887E-06  3946   0.105E-02    0.117E-02
RMM:  11    -0.532213003244E-01    0.35355E-05    0.31698E-07  3686   0.371E-03    0.717E-03
RMM:  12    -0.532184895592E-01    0.28108E-05    0.35846E-06  4253   0.201E-03    0.386E-03
RMM:  13    -0.532177936657E-01    0.69589E-06    0.57329E-06  4494   0.120E-03    0.229E-03
 first order change of Fermi-energy  5.012581493437640E-002
 force on displaced ion      18 direction 3 :  -1.204  -0.000 -11.789
 Born effective charge ion   18 direction 3 :  -0.088   0.000   0.024
 Linear response progress:
  Degree of freedom:  55/ 60
       N       E                     dE             d eps       ncg     rms          rms(c)
RMM:   1    -0.544826803021E-01   -0.54483E-01    0.74803E-02  5740   0.426E-01
RMM:   2    -0.538699864419E-01    0.61269E-03   -0.31605E-03  3708   0.162E-01    0.152E-01
RMM:   3    -0.536575314914E-01    0.21245E-03   -0.65668E-04  3772   0.555E-02    0.140E-01
RMM:   4    -0.535760562100E-01    0.81475E-04   -0.65156E-05  3253   0.316E-02    0.122E-01
RMM:   5    -0.535249255721E-01    0.51131E-04   -0.32408E-05  3764   0.150E-02    0.105E-01
RMM:   6    -0.533432024250E-01    0.18172E-03   -0.24648E-04  4638   0.406E-02    0.396E-02
RMM:   7    -0.533200374008E-01    0.23165E-04   -0.12173E-05  3438   0.112E-02    0.285E-02
RMM:   8    -0.533323102494E-01   -0.12273E-04   -0.12276E-05  3154   0.127E-02    0.181E-02
RMM:   9    -0.533593839257E-01   -0.27074E-04   -0.33607E-05  3684   0.153E-02    0.111E-02
RMM:  10    -0.533611493323E-01   -0.17654E-05   -0.32207E-06  3617   0.416E-03    0.704E-03
RMM:  11    -0.533531431648E-01    0.80062E-05   -0.17367E-06  3040   0.467E-03    0.497E-03
RMM:  12    -0.533542282286E-01   -0.10851E-05   -0.26741E-06  3670   0.353E-03    0.180E-03
RMM:  13    -0.533561531137E-01   -0.19249E-05   -0.11591E-06  3217   0.180E-03    0.138E-03
RMM:  14    -0.533546143633E-01    0.15388E-05   -0.65575E-07  4038   0.723E-04    0.102E-03
RMM:  15    -0.533522009894E-01    0.24134E-05   -0.68898E-07  3746   0.914E-04    0.583E-04
RMM:  16    -0.533520063283E-01    0.19466E-06   -0.11728E-06  4854   0.329E-04    0.512E-04
 first order change of Fermi-energy -1.568447451807398E-002
 force on displaced ion      19 direction 1 :  -9.098   0.000  -0.000
 Born effective charge ion   19 direction 1 :  -4.881   0.000   0.000
 Linear response progress:
  Degree of freedom:  56/ 60
       N       E                     dE             d eps       ncg     rms          rms(c)
RMM:   1    -0.349091325555E-01   -0.34909E-01    0.50466E-02  5435   0.436E-01
RMM:   2    -0.345206016124E-01    0.38853E-03   -0.29729E-03  3513   0.176E-01    0.663E-02
RMM:   3    -0.346062798925E-01   -0.85678E-04   -0.31636E-04  3860   0.386E-02    0.550E-02
RMM:   4    -0.345827467008E-01    0.23533E-04   -0.17078E-05  3937   0.103E-02    0.477E-02
RMM:   5    -0.344624547185E-01    0.12029E-03   -0.83177E-05  3833   0.227E-02    0.898E-03
RMM:   6    -0.344674834731E-01   -0.50288E-05   -0.17251E-06  3891   0.381E-03    0.830E-03
RMM:   7    -0.344770625127E-01   -0.95790E-05   -0.62214E-07  3491   0.209E-03    0.661E-03
RMM:   8    -0.345083487779E-01   -0.31286E-04   -0.59346E-06  4507   0.529E-03    0.169E-03
RMM:   9    -0.345056735051E-01    0.26753E-05   -0.10345E-07  3760   0.893E-04    0.127E-03
RMM:  10    -0.345052024142E-01    0.47109E-06   -0.71596E-08  4081   0.323E-04    0.108E-03
 first order change of Fermi-energy  8.586225554996219E-005
 force on displaced ion      19 direction 2 :  -0.000  -4.403  -0.003
 Born effective charge ion   19 direction 2 :  -0.000  -2.103  -0.000
 Linear response progress:
  Degree of freedom:  57/ 60
       N       E                     dE             d eps       ncg     rms          rms(c)
RMM:   1    -0.560815537103E-01   -0.56082E-01    0.59846E-02  6000   0.484E-01
RMM:   2    -0.534080649117E-01    0.26735E-02   -0.39156E-03  3473   0.217E-01    0.124E-01
RMM:   3    -0.534751811816E-01   -0.67116E-04   -0.50472E-04  3821   0.510E-02    0.111E-01
RMM:   4    -0.534322268654E-01    0.42954E-04   -0.16159E-05  3856   0.140E-02    0.104E-01
RMM:   5    -0.534502297078E-01   -0.18003E-04   -0.19049E-05  3376   0.148E-02    0.924E-02
RMM:   6    -0.533289009942E-01    0.12133E-03   -0.94663E-05  4199   0.258E-02    0.364E-02
RMM:   7    -0.533297549925E-01   -0.85400E-06   -0.22526E-06  3239   0.102E-02    0.254E-02
 first order change of Fermi-energy  1.738032102591713E-002
 force on displaced ion      19 direction 3 :  -0.002  -0.000  -8.469
 Born effective charge ion   19 direction 3 :  -0.005   0.000   0.019
 Linear response progress:
  Degree of freedom:  58/ 60
       N       E                     dE             d eps       ncg     rms          rms(c)
RMM:   1    -0.544823403787E-01   -0.54482E-01    0.74849E-02  5741   0.426E-01
RMM:   2    -0.538715108128E-01    0.61083E-03   -0.31632E-03  3709   0.162E-01    0.152E-01
RMM:   3    -0.536412540802E-01    0.23026E-03   -0.65762E-04  3769   0.555E-02    0.140E-01
RMM:   4    -0.535731051796E-01    0.68149E-04   -0.66482E-05  3255   0.316E-02    0.122E-01
RMM:   5    -0.535205368322E-01    0.52568E-04   -0.31622E-05  3768   0.150E-02    0.105E-01
RMM:   6    -0.533395072446E-01    0.18103E-03   -0.24502E-04  4638   0.407E-02    0.396E-02
RMM:   7    -0.533154236496E-01    0.24084E-04   -0.11392E-05  3439   0.112E-02    0.285E-02
RMM:   8    -0.533285483985E-01   -0.13125E-04   -0.12221E-05  3152   0.127E-02    0.180E-02
RMM:   9    -0.533570375610E-01   -0.28489E-04   -0.36575E-05  3711   0.159E-02    0.106E-02
RMM:  10    -0.533567636080E-01    0.27395E-06   -0.29056E-06  3622   0.392E-03    0.701E-03
 first order change of Fermi-energy -1.502576773042552E-002
 force on displaced ion      20 direction 1 :  -9.645   0.000  -0.006
 Born effective charge ion   20 direction 1 :  -4.894   0.000   0.000
 Linear response progress:
  Degree of freedom:  59/ 60
       N       E                     dE             d eps       ncg     rms          rms(c)
RMM:   1    -0.349066234617E-01   -0.34907E-01    0.50523E-02  5435   0.436E-01
RMM:   2    -0.345220681895E-01    0.38456E-03   -0.30048E-03  3517   0.176E-01    0.663E-02
RMM:   3    -0.346049263467E-01   -0.82858E-04   -0.31362E-04  3861   0.383E-02    0.550E-02
RMM:   4    -0.345813057433E-01    0.23621E-04   -0.17156E-05  3937   0.102E-02    0.477E-02
RMM:   5    -0.344609032055E-01    0.12040E-03   -0.83522E-05  3830   0.227E-02    0.898E-03
RMM:   6    -0.344659024455E-01   -0.49992E-05   -0.17358E-06  3890   0.381E-03    0.829E-03
RMM:   7    -0.344754081135E-01   -0.95057E-05   -0.58446E-07  3486   0.209E-03    0.662E-03
RMM:   8    -0.345066986297E-01   -0.31291E-04   -0.58658E-06  4508   0.530E-03    0.168E-03
RMM:   9    -0.345040071728E-01    0.26915E-05    0.59160E-08  3769   0.887E-04    0.126E-03
RMM:  10    -0.345035497572E-01    0.45742E-06    0.30503E-08  4113   0.319E-04    0.107E-03
 first order change of Fermi-energy  3.368408862947092E-005
 force on displaced ion      20 direction 2 :   0.000  -4.412   0.003
 Born effective charge ion   20 direction 2 :   0.000  -2.100   0.000
 Linear response progress:
  Degree of freedom:  60/ 60
       N       E                     dE             d eps       ncg     rms          rms(c)
RMM:   1    -0.560787848964E-01   -0.56079E-01    0.59879E-02  6001   0.484E-01
RMM:   2    -0.534469739081E-01    0.26318E-02   -0.36830E-03  3471   0.217E-01    0.124E-01
RMM:   3    -0.535249902782E-01   -0.78016E-04   -0.49009E-04  3821   0.511E-02    0.111E-01
RMM:   4    -0.535056995241E-01    0.19291E-04   -0.29139E-05  3850   0.140E-02    0.104E-01
RMM:   5    -0.534878071426E-01    0.17892E-04   -0.22059E-05  3372   0.148E-02    0.923E-02
RMM:   6    -0.533915363833E-01    0.96271E-04   -0.10424E-04  4194   0.258E-02    0.364E-02
RMM:   7    -0.533813781044E-01    0.10158E-04   -0.76419E-06  3232   0.102E-02    0.254E-02
RMM:   8    -0.533886078978E-01   -0.72298E-05   -0.61764E-06  3474   0.632E-03    0.209E-02
RMM:   9    -0.534024253862E-01   -0.13817E-04   -0.73373E-06  3782   0.542E-03    0.147E-02
RMM:  10    -0.534073334946E-01   -0.49081E-05   -0.12013E-06  3495   0.310E-03    0.103E-02
RMM:  11    -0.534120615399E-01   -0.47280E-05   -0.10057E-06  3423   0.312E-03    0.532E-03
RMM:  12    -0.534141714205E-01   -0.21099E-05   -0.57118E-07  3653   0.209E-03    0.310E-03
RMM:  13    -0.534100042874E-01    0.41671E-05   -0.26968E-07  3252   0.166E-03    0.181E-03
RMM:  14    -0.534069594217E-01    0.30449E-05   -0.18617E-07  3807   0.117E-03    0.105E-03
RMM:  15    -0.534081982498E-01   -0.12388E-05    0.12015E-07  3885   0.558E-04    0.760E-04
RMM:  16    -0.534082942713E-01   -0.96021E-07    0.84152E-08  4706   0.263E-04    0.601E-04
 first order change of Fermi-energy  1.951129209660785E-002
 force on displaced ion      20 direction 3 :  -0.007  -0.000  -9.055
 Born effective charge ion   20 direction 3 :   0.004  -0.000  -0.028
 Born effective charges drift removed
 Linear response finished
