PROCAR new format
# of k-points:   12         # of bands:   96         # of ions:   20

 k-point     1 :    0.00000000 0.00000000 0.00000000     weight = 0.04545455

band     1 # energy  -14.00621019 # occ.  2.00000000
 
ion      s      p      d    tot
    1  0.020  0.000  0.000  0.020
    2  0.020  0.000  0.000  0.020
    3  0.020  0.000  0.000  0.020
    4  0.020  0.000  0.000  0.020
    5  0.014  0.000  0.000  0.014
    6  0.014  0.000  0.000  0.014
    7  0.014  0.000  0.000  0.014
    8  0.014  0.000  0.000  0.014
    9  0.010  0.000  0.000  0.010
   10  0.010  0.000  0.000  0.010
   11  0.063  0.001  0.000  0.065
   12  0.063  0.001  0.000  0.064
   13  0.046  0.001  0.000  0.047
   14  0.046  0.001  0.000  0.047
   15  0.063  0.001  0.000  0.064
   16  0.064  0.001  0.000  0.065
   17  0.046  0.001  0.000  0.046
   18  0.046  0.001  0.000  0.047
   19  0.042  0.001  0.000  0.043
   20  0.042  0.001  0.000  0.043
tot    0.677  0.010  0.001  0.688
 
band     2 # energy  -13.74560067 # occ.  2.00000000
 
ion      s      p      d    tot
    1  0.016  0.001  0.001  0.019
    2  0.017  0.001  0.001  0.019
    3  0.017  0.001  0.001  0.019
    4  0.016  0.001  0.001  0.019
    5  0.019  0.000  0.000  0.020
    6  0.019  0.000  0.000  0.020
    7  0.020  0.000  0.000  0.020
    8  0.019  0.000  0.000  0.020
    9  0.000  0.001  0.000  0.002
   10  0.000  0.001  0.000  0.002
   11  0.100  0.002  0.000  0.102
   12  0.101  0.002  0.000  0.102
   13  0.032  0.001  0.000  0.033
   14  0.032  0.001  0.000  0.033
   15  0.101  0.002  0.000  0.103
   16  0.100  0.002  0.000  0.102
   17  0.032  0.001  0.000  0.033
   18  0.032  0.001  0.000  0.033
   19  0.000  0.000  0.000  0.000
   20  0.000  0.000  0.000  0.000
tot    0.674  0.020  0.008  0.702
 
band     3 # energy  -13.58959629 # occ.  2.00000000
 
ion      s      p      d    tot
    1  0.018  0.001  0.000  0.019
    2  0.018  0.001  0.000  0.019
    3  0.018  0.001  0.000  0.019
    4  0.018  0.001  0.000  0.019
    5  0.000  0.003  0.001  0.003
    6  0.000  0.003  0.001  0.003
    7  0.000  0.003  0.001  0.003
    8  0.000  0.003  0.001  0.003
    9  0.019  0.000  0.000  0.020
   10  0.019  0.000  0.000  0.020
   11  0.023  0.001  0.000  0.024
   12  0.023  0.001  0.000  0.024
   13  0.065  0.001  0.000  0.066
   14  0.065  0.001  0.000  0.066
   15  0.023  0.001  0.000  0.024
   16  0.024  0.001  0.000  0.024
   17  0.065  0.001  0.000  0.066
   18  0.065  0.001  0.000  0.066
   19  0.101  0.001  0.000  0.102
   20  0.101  0.001  0.000  0.102
tot    0.667  0.025  0.003  0.695
 
band     4 # energy  -13.11687990 # occ.  2.00000000
 
ion      s      p      d    tot
    1  0.000  0.008  0.001  0.009
    2  0.000  0.007  0.001  0.008
    3  0.000  0.007  0.001  0.008
    4  0.000  0.008  0.001  0.009
    5  0.004  0.004  0.001  0.010
    6  0.003  0.003  0.001  0.008
    7  0.003  0.003  0.001  0.007
    8  0.004  0.004  0.001  0.010
    9  0.001  0.003  0.001  0.004
   10  0.001  0.003  0.001  0.004
   11  0.100  0.001  0.000  0.100
   12  0.066  0.000  0.000  0.066
   13  0.060  0.000  0.000  0.060
   14  0.067  0.000  0.000  0.068
   15  0.066  0.000  0.000  0.066
   16  0.099  0.001  0.000  0.099
   17  0.067  0.000  0.000  0.067
   18  0.060  0.000  0.000  0.060
   19  0.018  0.000  0.000  0.018
   20  0.018  0.000  0.000  0.018
tot    0.637  0.053  0.010  0.699
 
band     5 # energy  -13.11318048 # occ.  2.00000000
 
ion      s      p      d    tot
    1  0.009  0.001  0.004  0.015
    2  0.009  0.002  0.004  0.016
    3  0.009  0.002  0.004  0.016
    4  0.009  0.001  0.004  0.015
    5  0.001  0.006  0.002  0.009
    6  0.001  0.008  0.002  0.011
    7  0.001  0.008  0.002  0.012
    8  0.001  0.006  0.002  0.009
    9  0.000  0.001  0.000  0.001
   10  0.000  0.001  0.000  0.001
   11  0.126  0.001  0.000  0.127
   12  0.159  0.001  0.000  0.160
   13  0.013  0.000  0.000  0.013
   14  0.005  0.000  0.000  0.006
   15  0.159  0.001  0.000  0.161
   16  0.126  0.001  0.000  0.127
   17  0.006  0.000  0.000  0.006
   18  0.013  0.000  0.000  0.013
   19  0.000  0.000  0.000  0.001
   20  0.000  0.000  0.000  0.001
tot    0.649  0.044  0.026  0.718
 
band     6 # energy  -12.87991871 # occ.  2.00000000
 
ion      s      p      d    tot
    1  0.000  0.007  0.005  0.012
    2  0.000  0.007  0.005  0.012
    3  0.000  0.007  0.005  0.012
    4  0.000  0.007  0.005  0.012
    5  0.005  0.001  0.001  0.007
    6  0.005  0.001  0.001  0.007
    7  0.006  0.001  0.001  0.007
    8  0.006  0.001  0.001  0.007
    9  0.014  0.002  0.001  0.017
   10  0.014  0.002  0.001  0.017
   11  0.051  0.001  0.000  0.052
   12  0.052  0.001  0.000  0.052
   13  0.004  0.000  0.000  0.004
   14  0.004  0.000  0.000  0.004
   15  0.052  0.001  0.000  0.053
   16  0.052  0.001  0.000  0.053
   17  0.003  0.000  0.000  0.003
   18  0.003  0.000  0.000  0.003
   19  0.198  0.002  0.000  0.199
   20  0.198  0.002  0.000  0.200
tot    0.666  0.042  0.026  0.734
 
band     7 # energy  -12.86705438 # occ.  2.00000000
 
ion      s      p      d    tot
    1  0.000  0.007  0.004  0.011
    2  0.000  0.007  0.004  0.011
    3  0.000  0.007  0.003  0.010
    4  0.000  0.007  0.003  0.010
    5  0.000  0.002  0.002  0.004
    6  0.000  0.002  0.002  0.004
    7  0.000  0.002  0.002  0.004
    8  0.000  0.002  0.002  0.004
    9  0.000  0.006  0.002  0.009
   10  0.000  0.006  0.002  0.009
   11  0.027  0.000  0.000  0.027
   12  0.028  0.000  0.000  0.028
   13  0.097  0.001  0.000  0.097
   14  0.096  0.001  0.000  0.097
   15  0.026  0.000  0.000  0.026
   16  0.026  0.000  0.000  0.027
   17  0.105  0.001  0.000  0.106
   18  0.105  0.001  0.000  0.106
   19  0.065  0.000  0.000  0.065
   20  0.064  0.000  0.000  0.064
tot    0.642  0.051  0.025  0.718
 
band     8 # energy  -12.85215914 # occ.  2.00000000
 
ion      s      p      d    tot
    1  0.007  0.006  0.002  0.014
    2  0.007  0.006  0.002  0.014
    3  0.007  0.006  0.002  0.015
    4  0.007  0.006  0.002  0.015
    5  0.004  0.002  0.001  0.007
    6  0.004  0.002  0.001  0.007
    7  0.004  0.002  0.001  0.007
    8  0.004  0.002  0.001  0.007
    9  0.000  0.004  0.003  0.007
   10  0.000  0.004  0.003  0.007
   11  0.010  0.000  0.000  0.011
   12  0.010  0.000  0.000  0.011
   13  0.147  0.002  0.000  0.149
   14  0.147  0.002  0.000  0.149
   15  0.011  0.000  0.000  0.011
   16  0.010  0.000  0.000  0.011
   17  0.140  0.002  0.000  0.142
   18  0.140  0.002  0.000  0.141
   19  0.000  0.000  0.000  0.000
   20  0.000  0.000  0.000  0.000
tot    0.658  0.048  0.019  0.724
 
band     9 # energy  -12.72881862 # occ.  2.00000000
 
ion      s      p      d    tot
    1  0.000  0.003  0.012  0.015
    2  0.000  0.003  0.012  0.015
    3  0.000  0.003  0.012  0.015
    4  0.000  0.003  0.012  0.015
    5  0.000  0.003  0.001  0.004
    6  0.000  0.003  0.001  0.004
    7  0.000  0.003  0.001  0.004
    8  0.000  0.003  0.001  0.004
    9  0.004  0.006  0.002  0.012
   10  0.004  0.006  0.002  0.012
   11  0.049  0.001  0.000  0.049
   12  0.049  0.001  0.000  0.049
   13  0.019  0.000  0.000  0.019
   14  0.019  0.000  0.000  0.019
   15  0.049  0.001  0.000  0.050
   16  0.048  0.001  0.000  0.049
   17  0.020  0.000  0.000  0.020
   18  0.019  0.000  0.000  0.019
   19  0.185  0.001  0.000  0.186
   20  0.185  0.001  0.000  0.186
tot    0.651  0.040  0.058  0.749
 
band    10 # energy  -12.52418404 # occ.  2.00000000
 
ion      s      p      d    tot
    1  0.001  0.008  0.002  0.011
    2  0.001  0.008  0.002  0.011
    3  0.001  0.008  0.002  0.011
    4  0.001  0.008  0.002  0.011
    5  0.001  0.003  0.003  0.006
    6  0.001  0.003  0.003  0.006
    7  0.001  0.003  0.003  0.006
    8  0.001  0.003  0.003  0.006
    9  0.000  0.003  0.003  0.006
   10  0.000  0.003  0.003  0.006
   11  0.041  0.000  0.000  0.041
   12  0.041  0.000  0.000  0.041
   13  0.124  0.001  0.000  0.125
   14  0.124  0.001  0.000  0.125
   15  0.041  0.000  0.000  0.041
   16  0.041  0.000  0.000  0.041
   17  0.124  0.001  0.000  0.125
   18  0.123  0.001  0.000  0.124
   19  0.000  0.000  0.000  0.000
   20  0.000  0.000  0.000  0.000
tot    0.666  0.052  0.024  0.742
 
band    11 # energy   -7.15710339 # occ.  2.00000000
 
ion      s      p      d    tot
    1  0.022  0.005  0.016  0.043
    2  0.022  0.005  0.016  0.042
    3  0.022  0.005  0.016  0.042
    4  0.022  0.005  0.016  0.042
    5  0.043  0.005  0.004  0.053
    6  0.043  0.005  0.004  0.052
    7  0.043  0.005  0.004  0.052
    8  0.043  0.005  0.004  0.053
    9  0.002  0.001  0.005  0.008
   10  0.002  0.001  0.005  0.008
   11  0.018  0.027  0.001  0.046
   12  0.018  0.027  0.001  0.045
   13  0.004  0.012  0.000  0.017
   14  0.004  0.012  0.000  0.017
   15  0.018  0.027  0.001  0.045
   16  0.018  0.027  0.001  0.046
   17  0.004  0.012  0.000  0.017
   18  0.004  0.013  0.000  0.017
   19  0.001  0.007  0.000  0.009
   20  0.001  0.007  0.000  0.009
tot    0.353  0.215  0.094  0.662
 
band    12 # energy   -6.93734418 # occ.  2.00000000
 
ion      s      p      d    tot
    1  0.020  0.006  0.016  0.042
    2  0.020  0.006  0.016  0.043
    3  0.020  0.006  0.016  0.042
    4  0.020  0.006  0.016  0.042
    5  0.049  0.007  0.006  0.061
    6  0.049  0.007  0.006  0.062
    7  0.049  0.007  0.006  0.062
    8  0.049  0.007  0.006  0.061
    9  0.000  0.001  0.001  0.002
   10  0.000  0.001  0.001  0.002
   11  0.020  0.033  0.001  0.053
   12  0.020  0.033  0.001  0.054
   13  0.005  0.007  0.000  0.012
   14  0.005  0.007  0.000  0.012
   15  0.020  0.033  0.001  0.054
   16  0.020  0.033  0.001  0.053
   17  0.005  0.007  0.000  0.012
   18  0.005  0.007  0.000  0.012
   19  0.000  0.000  0.000  0.001
   20  0.000  0.000  0.000  0.001
tot    0.375  0.215  0.095  0.684
 
band    13 # energy   -6.79865519 # occ.  2.00000000
 
ion      s      p      d    tot
    1  0.046  0.001  0.016  0.064
    2  0.046  0.001  0.015  0.062
    3  0.046  0.001  0.016  0.063
    4  0.046  0.001  0.016  0.063
    5  0.009  0.004  0.013  0.026
    6  0.009  0.004  0.013  0.026
    7  0.009  0.004  0.013  0.026
    8  0.010  0.004  0.013  0.027
    9  0.000  0.004  0.011  0.014
   10  0.000  0.004  0.011  0.014
   11  0.001  0.022  0.001  0.024
   12  0.001  0.022  0.001  0.023
   13  0.011  0.011  0.000  0.021
   14  0.010  0.010  0.000  0.021
   15  0.001  0.021  0.001  0.023
   16  0.001  0.022  0.001  0.024
   17  0.010  0.010  0.000  0.021
   18  0.011  0.011  0.000  0.022
   19  0.000  0.039  0.001  0.040
   20  0.000  0.039  0.001  0.040
tot    0.269  0.236  0.139  0.643
 
band    14 # energy   -6.74992303 # occ.  2.00000000
 
ion      s      p      d    tot
    1  0.029  0.002  0.021  0.053
    2  0.030  0.002  0.022  0.054
    3  0.030  0.002  0.022  0.054
    4  0.029  0.002  0.021  0.053
    5  0.015  0.007  0.004  0.026
    6  0.015  0.008  0.004  0.027
    7  0.016  0.008  0.004  0.027
    8  0.015  0.007  0.003  0.026
    9  0.001  0.002  0.013  0.017
   10  0.001  0.002  0.013  0.017
   11  0.000  0.017  0.001  0.018
   12  0.000  0.017  0.001  0.018
   13  0.004  0.040  0.001  0.045
   14  0.005  0.040  0.001  0.045
   15  0.000  0.017  0.001  0.018
   16  0.000  0.017  0.001  0.018
   17  0.005  0.040  0.001  0.045
   18  0.004  0.040  0.001  0.045
   19  0.002  0.000  0.000  0.002
   20  0.002  0.000  0.000  0.002
tot    0.206  0.272  0.132  0.610
 
band    15 # energy   -6.48219821 # occ.  2.00000000
 
ion      s      p      d    tot
    1  0.010  0.005  0.022  0.037
    2  0.010  0.005  0.021  0.036
    3  0.010  0.005  0.021  0.036
    4  0.010  0.005  0.021  0.036
    5  0.008  0.001  0.019  0.027
    6  0.008  0.001  0.018  0.027
    7  0.008  0.001  0.018  0.027
    8  0.008  0.001  0.019  0.028
    9  0.036  0.003  0.004  0.043
   10  0.037  0.003  0.004  0.043
   11  0.000  0.015  0.000  0.016
   12  0.000  0.015  0.000  0.016
   13  0.004  0.035  0.001  0.040
   14  0.004  0.035  0.001  0.040
   15  0.000  0.015  0.000  0.016
   16  0.000  0.015  0.000  0.016
   17  0.004  0.035  0.001  0.039
   18  0.004  0.036  0.001  0.040
   19  0.010  0.009  0.000  0.019
   20  0.010  0.009  0.000  0.019
tot    0.179  0.249  0.172  0.600
 
band    16 # energy   -6.44210799 # occ.  2.00000000
 
ion      s      p      d    tot
    1  0.029  0.009  0.011  0.049
    2  0.029  0.009  0.012  0.050
    3  0.028  0.009  0.012  0.048
    4  0.028  0.008  0.011  0.047
    5  0.006  0.002  0.020  0.028
    6  0.006  0.002  0.020  0.029
    7  0.006  0.002  0.020  0.029
    8  0.006  0.002  0.020  0.028
    9  0.000  0.010  0.001  0.010
   10  0.000  0.010  0.001  0.010
   11  0.001  0.029  0.001  0.030
   12  0.001  0.030  0.001  0.031
   13  0.002  0.013  0.001  0.015
   14  0.002  0.014  0.001  0.016
   15  0.001  0.030  0.001  0.031
   16  0.001  0.029  0.000  0.030
   17  0.002  0.015  0.001  0.017
   18  0.002  0.014  0.001  0.016
   19  0.000  0.033  0.000  0.033
   20  0.000  0.033  0.000  0.033
tot    0.148  0.301  0.133  0.582
 
band    17 # energy   -6.38345055 # occ.  2.00000000
 
ion      s      p      d    tot
    1  0.012  0.002  0.024  0.039
    2  0.012  0.002  0.024  0.039
    3  0.013  0.003  0.024  0.040
    4  0.013  0.003  0.024  0.040
    5  0.001  0.002  0.012  0.015
    6  0.001  0.002  0.012  0.015
    7  0.001  0.002  0.012  0.015
    8  0.001  0.002  0.012  0.015
    9  0.056  0.001  0.005  0.062
   10  0.055  0.001  0.005  0.061
   11  0.002  0.006  0.000  0.008
   12  0.002  0.006  0.000  0.008
   13  0.005  0.030  0.001  0.036
   14  0.005  0.030  0.001  0.036
   15  0.002  0.006  0.000  0.008
   16  0.002  0.006  0.000  0.008
   17  0.005  0.029  0.001  0.035
   18  0.005  0.029  0.001  0.035
   19  0.010  0.037  0.001  0.048
   20  0.010  0.038  0.001  0.048
tot    0.214  0.238  0.160  0.612
 
band    18 # energy   -5.85934086 # occ.  2.00000000
 
ion      s      p      d    tot
    1  0.004  0.001  0.042  0.047
    2  0.004  0.001  0.042  0.047
    3  0.004  0.001  0.042  0.047
    4  0.004  0.001  0.042  0.047
    5  0.001  0.008  0.023  0.032
    6  0.001  0.008  0.023  0.032
    7  0.001  0.008  0.023  0.032
    8  0.001  0.008  0.023  0.032
    9  0.016  0.001  0.022  0.040
   10  0.016  0.001  0.022  0.040
   11  0.000  0.011  0.000  0.012
   12  0.000  0.012  0.000  0.012
   13  0.000  0.035  0.001  0.036
   14  0.000  0.035  0.001  0.036
   15  0.000  0.011  0.000  0.012
   16  0.000  0.011  0.000  0.012
   17  0.000  0.035  0.001  0.036
   18  0.000  0.035  0.001  0.036
   19  0.001  0.025  0.001  0.026
   20  0.001  0.025  0.001  0.026
tot    0.056  0.275  0.312  0.643
 
band    19 # energy   -5.66718426 # occ.  2.00000000
 
ion      s      p      d    tot
    1  0.003  0.001  0.045  0.049
    2  0.003  0.001  0.044  0.049
    3  0.003  0.001  0.045  0.049
    4  0.003  0.001  0.045  0.049
    5  0.000  0.006  0.042  0.048
    6  0.000  0.006  0.041  0.048
    7  0.000  0.006  0.041  0.048
    8  0.000  0.006  0.041  0.048
    9  0.000  0.002  0.006  0.008
   10  0.000  0.002  0.006  0.008
   11  0.003  0.038  0.001  0.042
   12  0.003  0.038  0.001  0.042
   13  0.002  0.012  0.000  0.014
   14  0.002  0.012  0.000  0.014
   15  0.003  0.038  0.001  0.042
   16  0.003  0.038  0.001  0.042
   17  0.002  0.012  0.000  0.014
   18  0.002  0.012  0.000  0.014
   19  0.000  0.019  0.000  0.019
   20  0.000  0.019  0.000  0.019
tot    0.034  0.270  0.361  0.665
 
band    20 # energy   -5.30030880 # occ.  2.00000000
 
ion      s      p      d    tot
    1  0.001  0.004  0.060  0.065
    2  0.001  0.004  0.060  0.065
    3  0.001  0.004  0.060  0.065
    4  0.001  0.004  0.060  0.065
    5  0.000  0.001  0.024  0.025
    6  0.000  0.001  0.024  0.025
    7  0.000  0.001  0.024  0.025
    8  0.000  0.001  0.024  0.025
    9  0.000  0.000  0.052  0.052
   10  0.000  0.000  0.052  0.052
   11  0.001  0.004  0.001  0.005
   12  0.001  0.004  0.001  0.005
   13  0.000  0.016  0.000  0.016
   14  0.000  0.016  0.000  0.016
   15  0.001  0.004  0.001  0.006
   16  0.001  0.004  0.001  0.006
   17  0.000  0.016  0.000  0.016
   18  0.000  0.016  0.000  0.016
   19  0.000  0.082  0.001  0.083
   20  0.000  0.082  0.001  0.083
tot    0.008  0.262  0.447  0.716
 
band    21 # energy   -5.22195415 # occ.  2.00000000
 
ion      s      p      d    tot
    1  0.003  0.000  0.015  0.018
    2  0.003  0.000  0.015  0.018
    3  0.003  0.000  0.015  0.018
    4  0.003  0.000  0.015  0.018
    5  0.000  0.004  0.104  0.108
    6  0.000  0.004  0.104  0.108
    7  0.000  0.004  0.104  0.108
    8  0.000  0.004  0.104  0.108
    9  0.001  0.000  0.002  0.004
   10  0.001  0.000  0.002  0.004
   11  0.003  0.042  0.001  0.045
   12  0.003  0.042  0.001  0.045
   13  0.000  0.001  0.000  0.001
   14  0.000  0.001  0.000  0.001
   15  0.003  0.042  0.001  0.045
   16  0.003  0.042  0.001  0.045
   17  0.000  0.001  0.000  0.001
   18  0.000  0.001  0.000  0.001
   19  0.006  0.006  0.000  0.012
   20  0.006  0.006  0.000  0.012
tot    0.037  0.200  0.485  0.722
 
band    22 # energy   -4.90424307 # occ.  2.00000000
 
ion      s      p      d    tot
    1  0.003  0.011  0.020  0.033
    2  0.002  0.010  0.019  0.032
    3  0.002  0.010  0.019  0.032
    4  0.003  0.011  0.020  0.033
    5  0.000  0.003  0.095  0.098
    6  0.000  0.002  0.092  0.094
    7  0.000  0.002  0.092  0.095
    8  0.000  0.003  0.095  0.098
    9  0.005  0.001  0.016  0.022
   10  0.004  0.001  0.016  0.022
   11  0.000  0.022  0.001  0.023
   12  0.000  0.022  0.001  0.022
   13  0.000  0.023  0.000  0.024
   14  0.000  0.023  0.000  0.024
   15  0.000  0.022  0.000  0.022
   16  0.000  0.022  0.001  0.023
   17  0.000  0.023  0.000  0.024
   18  0.000  0.023  0.000  0.024
   19  0.000  0.002  0.000  0.002
   20  0.000  0.002  0.000  0.002
tot    0.021  0.238  0.488  0.747
 
band    23 # energy   -4.88278463 # occ.  2.00000000
 
ion      s      p      d    tot
    1  0.000  0.003  0.041  0.045
    2  0.000  0.003  0.036  0.039
    3  0.000  0.003  0.037  0.039
    4  0.000  0.003  0.041  0.045
    5  0.000  0.001  0.149  0.150
    6  0.000  0.000  0.131  0.132
    7  0.000  0.000  0.131  0.132
    8  0.000  0.001  0.150  0.150
    9  0.000  0.000  0.009  0.009
   10  0.000  0.000  0.009  0.009
   11  0.000  0.033  0.002  0.035
   12  0.000  0.029  0.002  0.031
   13  0.000  0.001  0.000  0.001
   14  0.000  0.001  0.000  0.001
   15  0.000  0.029  0.002  0.031
   16  0.000  0.033  0.002  0.035
   17  0.000  0.001  0.000  0.001
   18  0.000  0.001  0.000  0.001
   19  0.000  0.000  0.000  0.000
   20  0.000  0.000  0.000  0.000
tot    0.000  0.142  0.743  0.885
 
band    24 # energy   -4.86256158 # occ.  2.00000000
 
ion      s      p      d    tot
    1  0.000  0.003  0.034  0.037
    2  0.000  0.004  0.039  0.043
    3  0.000  0.004  0.039  0.043
    4  0.000  0.003  0.034  0.038
    5  0.000  0.000  0.137  0.137
    6  0.000  0.001  0.155  0.155
    7  0.000  0.001  0.156  0.156
    8  0.000  0.000  0.137  0.138
    9  0.000  0.001  0.000  0.001
   10  0.000  0.001  0.000  0.001
   11  0.000  0.030  0.002  0.031
   12  0.000  0.034  0.002  0.035
   13  0.000  0.000  0.000  0.000
   14  0.000  0.000  0.000  0.000
   15  0.000  0.034  0.002  0.036
   16  0.000  0.030  0.002  0.031
   17  0.000  0.000  0.000  0.000
   18  0.000  0.000  0.000  0.000
   19  0.000  0.001  0.000  0.001
   20  0.000  0.001  0.000  0.001
tot    0.000  0.147  0.738  0.885
 
band    25 # energy   -4.85482816 # occ.  2.00000000
 
ion      s      p      d    tot
    1  0.003  0.004  0.040  0.047
    2  0.003  0.005  0.041  0.048
    3  0.003  0.005  0.041  0.048
    4  0.003  0.005  0.040  0.047
    5  0.005  0.001  0.120  0.126
    6  0.005  0.001  0.123  0.129
    7  0.005  0.001  0.123  0.129
    8  0.005  0.001  0.120  0.126
    9  0.000  0.000  0.001  0.001
   10  0.000  0.000  0.001  0.001
   11  0.001  0.008  0.000  0.010
   12  0.001  0.009  0.000  0.010
   13  0.001  0.022  0.001  0.024
   14  0.001  0.022  0.001  0.025
   15  0.001  0.009  0.000  0.010
   16  0.001  0.009  0.000  0.010
   17  0.001  0.022  0.001  0.024
   18  0.001  0.021  0.001  0.024
   19  0.000  0.003  0.000  0.003
   20  0.000  0.003  0.000  0.004
tot    0.043  0.151  0.654  0.848
 
band    26 # energy   -4.79903847 # occ.  2.00000000
 
ion      s      p      d    tot
    1  0.001  0.010  0.005  0.016
    2  0.001  0.010  0.005  0.016
    3  0.001  0.010  0.005  0.016
    4  0.001  0.010  0.005  0.016
    5  0.003  0.007  0.011  0.022
    6  0.004  0.007  0.011  0.022
    7  0.003  0.007  0.012  0.023
    8  0.003  0.007  0.013  0.023
    9  0.010  0.003  0.056  0.069
   10  0.010  0.003  0.057  0.070
   11  0.002  0.023  0.000  0.026
   12  0.002  0.023  0.000  0.026
   13  0.000  0.018  0.000  0.019
   14  0.000  0.018  0.000  0.019
   15  0.002  0.024  0.000  0.026
   16  0.002  0.024  0.000  0.026
   17  0.000  0.019  0.000  0.020
   18  0.000  0.019  0.000  0.020
   19  0.005  0.066  0.001  0.071
   20  0.005  0.065  0.001  0.071
tot    0.055  0.378  0.183  0.616
 
band    27 # energy   -4.74614504 # occ.  2.00000000
 
ion      s      p      d    tot
    1  0.003  0.004  0.005  0.012
    2  0.003  0.004  0.005  0.012
    3  0.003  0.004  0.006  0.012
    4  0.003  0.004  0.006  0.012
    5  0.001  0.000  0.059  0.061
    6  0.001  0.000  0.059  0.061
    7  0.001  0.000  0.058  0.060
    8  0.001  0.000  0.058  0.060
    9  0.000  0.010  0.065  0.075
   10  0.000  0.010  0.065  0.075
   11  0.000  0.012  0.000  0.013
   12  0.000  0.012  0.000  0.013
   13  0.000  0.048  0.001  0.049
   14  0.000  0.048  0.001  0.049
   15  0.000  0.011  0.000  0.012
   16  0.000  0.011  0.000  0.011
   17  0.000  0.047  0.001  0.048
   18  0.000  0.047  0.001  0.048
   19  0.000  0.001  0.000  0.001
   20  0.000  0.001  0.000  0.001
tot    0.016  0.275  0.391  0.683
 
band    28 # energy   -4.64952064 # occ.  2.00000000
 
ion      s      p      d    tot
    1  0.000  0.004  0.013  0.016
    2  0.000  0.004  0.013  0.016
    3  0.000  0.004  0.013  0.016
    4  0.000  0.004  0.013  0.016
    5  0.000  0.000  0.036  0.036
    6  0.000  0.000  0.036  0.036
    7  0.000  0.000  0.036  0.036
    8  0.000  0.000  0.036  0.036
    9  0.001  0.007  0.092  0.100
   10  0.001  0.007  0.092  0.099
   11  0.001  0.007  0.000  0.008
   12  0.001  0.007  0.000  0.009
   13  0.000  0.024  0.000  0.025
   14  0.000  0.024  0.000  0.025
   15  0.001  0.007  0.000  0.009
   16  0.001  0.007  0.000  0.009
   17  0.000  0.024  0.000  0.025
   18  0.000  0.024  0.000  0.025
   19  0.001  0.069  0.001  0.071
   20  0.001  0.069  0.001  0.071
tot    0.009  0.295  0.381  0.685
 
band    29 # energy   -4.47153919 # occ.  2.00000000
 
ion      s      p      d    tot
    1  0.000  0.000  0.071  0.071
    2  0.000  0.000  0.034  0.034
    3  0.000  0.000  0.034  0.034
    4  0.000  0.000  0.070  0.070
    5  0.000  0.010  0.156  0.165
    6  0.000  0.005  0.073  0.078
    7  0.000  0.005  0.073  0.078
    8  0.000  0.010  0.155  0.165
    9  0.000  0.000  0.019  0.019
   10  0.000  0.000  0.019  0.019
   11  0.000  0.029  0.002  0.031
   12  0.000  0.013  0.001  0.014
   13  0.000  0.016  0.001  0.017
   14  0.000  0.007  0.000  0.007
   15  0.000  0.013  0.001  0.014
   16  0.000  0.028  0.002  0.030
   17  0.000  0.007  0.000  0.007
   18  0.000  0.016  0.001  0.017
   19  0.000  0.000  0.000  0.000
   20  0.000  0.000  0.000  0.000
tot    0.000  0.159  0.712  0.871
 
band    30 # energy   -4.46787164 # occ.  2.00000000
 
ion      s      p      d    tot
    1  0.000  0.000  0.032  0.032
    2  0.000  0.000  0.069  0.069
    3  0.000  0.000  0.069  0.069
    4  0.000  0.000  0.032  0.032
    5  0.000  0.004  0.073  0.077
    6  0.000  0.009  0.156  0.165
    7  0.000  0.009  0.156  0.164
    8  0.000  0.004  0.073  0.077
    9  0.000  0.000  0.012  0.013
   10  0.000  0.000  0.012  0.013
   11  0.000  0.014  0.001  0.015
   12  0.000  0.029  0.002  0.031
   13  0.000  0.009  0.000  0.009
   14  0.000  0.018  0.001  0.019
   15  0.000  0.029  0.002  0.031
   16  0.000  0.014  0.001  0.015
   17  0.000  0.018  0.001  0.019
   18  0.000  0.009  0.000  0.009
   19  0.000  0.002  0.000  0.002
   20  0.000  0.002  0.000  0.002
tot    0.000  0.169  0.693  0.862
 
band    31 # energy   -4.19338668 # occ.  2.00000000
 
ion      s      p      d    tot
    1  0.000  0.005  0.023  0.028
    2  0.000  0.005  0.023  0.029
    3  0.000  0.005  0.023  0.029
    4  0.000  0.005  0.023  0.029
    5  0.000  0.014  0.052  0.066
    6  0.000  0.014  0.053  0.067
    7  0.000  0.014  0.052  0.066
    8  0.000  0.014  0.053  0.067
    9  0.000  0.003  0.018  0.022
   10  0.000  0.003  0.019  0.022
   11  0.000  0.007  0.000  0.007
   12  0.000  0.007  0.000  0.007
   13  0.003  0.053  0.001  0.057
   14  0.003  0.053  0.001  0.057
   15  0.000  0.007  0.000  0.007
   16  0.000  0.007  0.000  0.007
   17  0.003  0.053  0.001  0.057
   18  0.003  0.053  0.001  0.057
   19  0.000  0.015  0.000  0.015
   20  0.000  0.015  0.000  0.015
tot    0.013  0.352  0.348  0.713
 
band    32 # energy   -4.09022395 # occ.  2.00000000
 
ion      s      p      d    tot
    1  0.000  0.026  0.008  0.034
    2  0.000  0.026  0.007  0.034
    3  0.000  0.026  0.008  0.034
    4  0.000  0.026  0.007  0.034
    5  0.006  0.006  0.041  0.052
    6  0.006  0.006  0.040  0.052
    7  0.006  0.006  0.041  0.052
    8  0.006  0.006  0.040  0.052
    9  0.000  0.010  0.002  0.012
   10  0.000  0.010  0.002  0.012
   11  0.003  0.012  0.001  0.017
   12  0.003  0.012  0.001  0.017
   13  0.001  0.012  0.000  0.013
   14  0.001  0.012  0.000  0.013
   15  0.003  0.013  0.001  0.017
   16  0.003  0.013  0.001  0.017
   17  0.001  0.012  0.000  0.013
   18  0.001  0.012  0.000  0.013
   19  0.000  0.094  0.001  0.095
   20  0.000  0.093  0.001  0.094
tot    0.041  0.434  0.203  0.679
 
band    33 # energy   -4.01086214 # occ.  2.00000000
 
ion      s      p      d    tot
    1  0.000  0.000  0.054  0.054
    2  0.000  0.000  0.053  0.054
    3  0.000  0.000  0.054  0.054
    4  0.000  0.000  0.054  0.054
    5  0.000  0.003  0.022  0.025
    6  0.000  0.003  0.022  0.024
    7  0.000  0.003  0.022  0.024
    8  0.000  0.003  0.022  0.024
    9  0.000  0.001  0.147  0.148
   10  0.000  0.001  0.147  0.149
   11  0.000  0.006  0.000  0.006
   12  0.000  0.006  0.000  0.006
   13  0.000  0.023  0.001  0.023
   14  0.000  0.022  0.001  0.023
   15  0.000  0.006  0.000  0.006
   16  0.000  0.006  0.000  0.006
   17  0.000  0.022  0.001  0.023
   18  0.000  0.023  0.001  0.023
   19  0.000  0.044  0.002  0.045
   20  0.000  0.043  0.002  0.045
tot    0.000  0.217  0.604  0.820
 
band    34 # energy   -3.89402471 # occ.  2.00000000
 
ion      s      p      d    tot
    1  0.000  0.000  0.033  0.033
    2  0.000  0.000  0.033  0.033
    3  0.000  0.000  0.032  0.032
    4  0.000  0.000  0.032  0.033
    5  0.000  0.004  0.089  0.093
    6  0.000  0.004  0.089  0.093
    7  0.000  0.004  0.089  0.093
    8  0.000  0.004  0.090  0.093
    9  0.000  0.005  0.128  0.133
   10  0.000  0.005  0.128  0.133
   11  0.000  0.001  0.000  0.001
   12  0.000  0.001  0.000  0.001
   13  0.000  0.002  0.000  0.002
   14  0.000  0.002  0.000  0.002
   15  0.000  0.001  0.000  0.001
   16  0.000  0.001  0.000  0.001
   17  0.000  0.002  0.000  0.002
   18  0.000  0.002  0.000  0.002
   19  0.000  0.049  0.002  0.051
   20  0.000  0.049  0.002  0.051
tot    0.000  0.136  0.747  0.882
 
band    35 # energy   -3.78427698 # occ.  2.00000000
 
ion      s      p      d    tot
    1  0.001  0.007  0.004  0.012
    2  0.001  0.007  0.004  0.011
    3  0.001  0.007  0.004  0.011
    4  0.001  0.007  0.004  0.012
    5  0.000  0.000  0.065  0.066
    6  0.000  0.000  0.065  0.065
    7  0.000  0.000  0.065  0.066
    8  0.000  0.000  0.066  0.066
    9  0.008  0.004  0.091  0.103
   10  0.008  0.004  0.091  0.102
   11  0.001  0.019  0.001  0.020
   12  0.001  0.019  0.001  0.020
   13  0.001  0.031  0.001  0.033
   14  0.001  0.031  0.001  0.033
   15  0.001  0.019  0.001  0.020
   16  0.001  0.019  0.001  0.020
   17  0.001  0.031  0.001  0.033
   18  0.001  0.031  0.001  0.033
   19  0.000  0.010  0.000  0.010
   20  0.000  0.010  0.000  0.010
tot    0.025  0.257  0.463  0.745
 
band    36 # energy   -3.71092043 # occ.  2.00000000
 
ion      s      p      d    tot
    1  0.001  0.008  0.003  0.012
    2  0.001  0.008  0.003  0.012
    3  0.001  0.008  0.003  0.012
    4  0.001  0.008  0.003  0.012
    5  0.000  0.000  0.052  0.053
    6  0.000  0.000  0.052  0.053
    7  0.000  0.000  0.053  0.054
    8  0.000  0.000  0.053  0.053
    9  0.000  0.007  0.104  0.110
   10  0.000  0.007  0.104  0.110
   11  0.001  0.019  0.000  0.020
   12  0.001  0.020  0.000  0.021
   13  0.002  0.041  0.000  0.044
   14  0.002  0.042  0.000  0.044
   15  0.001  0.020  0.000  0.021
   16  0.001  0.020  0.000  0.021
   17  0.002  0.042  0.000  0.044
   18  0.002  0.041  0.000  0.044
   19  0.000  0.001  0.000  0.001
   20  0.000  0.001  0.000  0.001
tot    0.014  0.294  0.433  0.740
 
band    37 # energy   -3.68927935 # occ.  2.00000000
 
ion      s      p      d    tot
    1  0.000  0.000  0.023  0.024
    2  0.000  0.000  0.023  0.023
    3  0.000  0.000  0.024  0.024
    4  0.000  0.000  0.023  0.023
    5  0.000  0.001  0.185  0.186
    6  0.000  0.001  0.185  0.186
    7  0.000  0.001  0.185  0.186
    8  0.000  0.001  0.185  0.186
    9  0.000  0.000  0.011  0.011
   10  0.000  0.000  0.010  0.010
   11  0.000  0.016  0.000  0.017
   12  0.000  0.016  0.000  0.016
   13  0.000  0.000  0.000  0.000
   14  0.000  0.000  0.000  0.001
   15  0.000  0.016  0.000  0.016
   16  0.000  0.016  0.000  0.016
   17  0.000  0.000  0.000  0.000
   18  0.000  0.000  0.000  0.001
   19  0.000  0.000  0.000  0.000
   20  0.000  0.000  0.000  0.000
tot    0.000  0.070  0.857  0.927
 
band    38 # energy   -3.67119478 # occ.  2.00000000
 
ion      s      p      d    tot
    1  0.000  0.006  0.066  0.072