Automatically generated mesh
      22
Reciprocal lattice
    0.00000000000000    0.00000000000000    0.00000000000000             1
    0.50000000000000    0.00000000000000    0.00000000000000             1
    0.00000000000000    0.09090909090909   -0.00000000000000             1
    0.00000000000000   -0.09090909090909    0.00000000000000             1
    0.50000000000000    0.09090909090909   -0.00000000000000             1
    0.50000000000000   -0.09090909090909    0.00000000000000             1
    0.00000000000000    0.18181818181818    0.00000000000000             1
    0.00000000000000   -0.18181818181818   -0.00000000000000             1
    0.50000000000000    0.18181818181818    0.00000000000000             1
    0.50000000000000   -0.18181818181818   -0.00000000000000             1
    0.00000000000000    0.27272727272727    0.00000000000000             1
    0.00000000000000   -0.27272727272727   -0.00000000000000             1
    0.50000000000000    0.27272727272727    0.00000000000000             1
    0.50000000000000   -0.27272727272727   -0.00000000000000             1
    0.00000000000000    0.36363636363637   -0.00000000000000             1
    0.00000000000000   -0.36363636363637    0.00000000000000             1
    0.50000000000000    0.36363636363637   -0.00000000000000             1
    0.50000000000000   -0.36363636363637    0.00000000000000             1
    0.00000000000000    0.45454545454545   -0.00000000000000             1
    0.00000000000000   -0.45454545454545    0.00000000000000             1
    0.50000000000000    0.45454545454545   -0.00000000000000             1
    0.50000000000000   -0.45454545454545    0.00000000000000             1
