 running   32 mpi-ranks, on    1 nodes
 distrk:  each k-point on   32 cores,    1 groups
 distr:  one band on    4 cores,    8 groups
 vasp.6.4.2 20Jul23 (build Nov 14 2023 13:24:25) complex                        
  
 POSCAR found type information on POSCAR TaNiTe
 POSCAR found :  3 types and      20 ions
 Reading from existing POTCAR
 -----------------------------------------------------------------------------
|                                                                             |
|           W    W    AA    RRRRR   N    N  II  N    N   GGGG   !!!           |
|           W    W   A  A   R    R  NN   N  II  NN   N  G    G  !!!           |
|           W    W  A    A  R    R  N N  N  II  N N  N  G       !!!           |
|           W WW W  AAAAAA  RRRRR   N  N N  II  N  N N  G  GGG   !            |
|           WW  WW  A    A  R   R   N   NN  II  N   NN  G    G                |
|           W    W  A    A  R    R  N    N  II  N    N   GGGG   !!!           |
|                                                                             |
|     You use a magnetic or noncollinear calculation, but did not specify     |
|     the initial magnetic moment with the MAGMOM tag. Note that a            |
|     default of 1 will be used for all atoms. This ferromagnetic setup       |
|     may break the symmetry of the crystal, in particular it may rule        |
|     out finding an antiferromagnetic solution. Thence, we recommend         |
|     setting the initial magnetic moment manually or verifying carefully     |
|     that this magnetic setup is desired.                                    |
|                                                                             |
 -----------------------------------------------------------------------------

 scaLAPACK will be used
 Reading from existing POTCAR
 LDA part: xc-table for Pade appr. of Perdew
 POSCAR, INCAR and KPOINTS ok, starting setup
 FFT: planning ... GRIDC
 FFT: planning ... GRID_SOFT
 FFT: planning ... GRID
 WAVECAR not read
 entering main loop
       N       E                     dE             d eps       ncg     rms          rms(c)
DAV:   1     0.672758868753E+03    0.67276E+03   -0.34171E+04 12592   0.492E+02
DAV:   2    -0.394824332025E+02   -0.71224E+03   -0.67318E+03 15896   0.156E+02
DAV:   3    -0.115219524104E+03   -0.75737E+02   -0.73079E+02 16304   0.558E+01
DAV:   4    -0.118469769286E+03   -0.32502E+01   -0.32273E+01 16120   0.113E+01
DAV:   5    -0.118559522173E+03   -0.89753E-01   -0.89687E-01 16408   0.207E+00
DAV:   6    -0.118562350764E+03   -0.28286E-02   -0.28282E-02 16560   0.333E-01
DAV:   7    -0.118562489336E+03   -0.13857E-03   -0.13857E-03 16848   0.744E-02
DAV:   8    -0.118562496113E+03   -0.67766E-05   -0.67773E-05 16640   0.147E-02
DAV:   9    -0.118562496563E+03   -0.45038E-06   -0.45104E-06 13760   0.362E-03
DAV:  10    -0.118562496585E+03   -0.21479E-07   -0.22102E-07  9872   0.889E-04
DAV:  11    -0.118562496589E+03   -0.47221E-08   -0.53061E-08  8512   0.493E-04
DAV:  12    -0.118562496592E+03   -0.20882E-08   -0.27626E-08  7824   0.338E-04    0.480E+01
DAV:  13    -0.120784060316E+03   -0.22216E+01   -0.10790E+01 16632   0.183E+01    0.382E+01
DAV:  14    -0.122058057163E+03   -0.12740E+01   -0.22563E+00 18264   0.141E+01    0.279E+01
DAV:  15    -0.120760331767E+03    0.12977E+01   -0.71531E+00 17416   0.112E+01    0.152E+01
DAV:  16    -0.121021283334E+03   -0.26095E+00   -0.27236E+00 16560   0.146E+01    0.129E+01
DAV:  17    -0.121209533842E+03   -0.18825E+00   -0.13408E+00 17032   0.979E+00    0.813E+00
DAV:  18    -0.121079138856E+03    0.13039E+00   -0.23556E-01 17792   0.437E+00    0.473E+00
DAV:  19    -0.121126551640E+03   -0.47413E-01   -0.24844E-01 18472   0.394E+00    0.306E+00
DAV:  20    -0.121070806453E+03    0.55745E-01   -0.21748E-01 18120   0.399E+00    0.211E+00
DAV:  21    -0.121032819935E+03    0.37987E-01   -0.70303E-02 16008   0.145E+00    0.153E+00
DAV:  22    -0.121027190273E+03    0.56297E-02   -0.40269E-02 16344   0.110E+00    0.137E+00
DAV:  23    -0.121018262015E+03    0.89283E-02   -0.18529E-02 15896   0.128E+00    0.900E-01
DAV:  24    -0.121014488555E+03    0.37735E-02   -0.12284E-02 18216   0.107E+00    0.517E-01
DAV:  25    -0.121014195458E+03    0.29310E-03   -0.63545E-03 15536   0.369E-01    0.322E-01
DAV:  26    -0.121014352134E+03   -0.15668E-03   -0.12576E-03 15128   0.205E-01    0.202E-01
DAV:  27    -0.121014274366E+03    0.77768E-04   -0.39497E-04 15952   0.150E-01    0.105E-01
DAV:  28    -0.121014264810E+03    0.95563E-05   -0.13368E-04 16192   0.494E-02    0.820E-02
DAV:  29    -0.121014297142E+03   -0.32332E-04   -0.34246E-05 15176   0.335E-02    0.528E-02
DAV:  30    -0.121014290256E+03    0.68852E-05   -0.25485E-05 16264   0.254E-02    0.282E-02
DAV:  31    -0.121014284293E+03    0.59631E-05   -0.11918E-05 14144   0.124E-02    0.176E-02
DAV:  32    -0.121014285342E+03   -0.10487E-05   -0.26536E-06 14280   0.749E-03    0.111E-02
DAV:  33    -0.121014285789E+03   -0.44687E-06   -0.11753E-06 10848   0.818E-03
   1 F= -.12101429E+03 E0= -.12101429E+03  d E =-.132556E-11  mag=    -0.0005    -0.0005    -0.0006
IPL WARN> IPL_init_numa_nodes: can not define numa node num
