       N       E                     dE             d eps       ncg     rms          rms(c)
DAV:   1     0.632995723161E+03    0.63300E+03   -0.33911E+04 68568   0.491E+02
DAV:   2    -0.425349249282E+02   -0.67553E+03   -0.63002E+03 86488   0.151E+02
DAV:   3    -0.117027100745E+03   -0.74492E+02   -0.71836E+02 89976   0.536E+01
DAV:   4    -0.120264110913E+03   -0.32370E+01   -0.32188E+01 84976   0.111E+01
DAV:   5    -0.120345950048E+03   -0.81839E-01   -0.81807E-01 87800   0.193E+00
DAV:   6    -0.120348777501E+03   -0.28275E-02   -0.28273E-02 93424   0.316E-01
DAV:   7    -0.120348894449E+03   -0.11695E-03   -0.11695E-03 94544   0.596E-02
DAV:   8    -0.120348898629E+03   -0.41796E-05   -0.41797E-05 95024   0.901E-03
DAV:   9    -0.120348898729E+03   -0.10023E-06   -0.10013E-06 64968   0.135E-03
DAV:  10    -0.120348898737E+03   -0.81072E-08   -0.79989E-08 50208   0.527E-04
DAV:  11    -0.120348898739E+03   -0.21082E-08   -0.21866E-08 45096   0.321E-04
DAV:  12    -0.120348898740E+03   -0.10132E-08   -0.10521E-08 41272   0.218E-04
DAV:  13    -0.120348898741E+03   -0.61664E-09   -0.54202E-09 40064   0.156E-04
   1 F= -.12034890E+03 E0= -.12034890E+03  d E =-.223360E-11  mag=    -0.0005    -0.0005    -0.0006
