 vasp.6.4.2 20Jul23 (build Nov 14 2023 13:24:25) complex                        
  
 executed on             LinuxIFC date 2024.06.22  13:59:19
 running   32 mpi-ranks, on    1 nodes
 distrk:  each k-point on   32 cores,    1 groups
 distr:  one band on NCORE=   4 cores,    8 groups


--------------------------------------------------------------------------------------------------------


 INCAR:
   ENCUT = 303.223
   ALGO = Normal
   NELM = 200
   NELMIN = 6
   NELMDL = -12
   EDIFF = 1.0E-6
   AMIX = 0.1
   BMIX = 0.0001
   NBANDS = 280
   PREC = Accurate
   IVDW = 0
   ISPIN = 1
   ADDGRID = .TRUE.
   LASPH = .TRUE.
   LSORBIT = .TRUE.
   LREAL = Auto
   NSW = 0
   EDIFFG = -0.010
   IBRION = 2
   ISIF = 3
   POTIM = 0.5
   STRESSTYPE = 2
   ISMEAR = 0
   SIGMA = 0.01
   LORBIT = 10
   NEDOS = 6001
   NWRITE = 1
   LWAVE = .FALSE.
   LCHARG = .FALSE.
   ICHARG = 11
   NCORE = 4
   LPLANE = .TRUE.

 POTCAR:    PAW_PBE Ta 17Jan2003                  
 POTCAR:    PAW_PBE Ni 02Aug2007                  
 POTCAR:    PAW_PBE Te 08Apr2002                  
 -----------------------------------------------------------------------------
|                                                                             |
|           W    W    AA    RRRRR   N    N  II  N    N   GGGG   !!!           |
|           W    W   A  A   R    R  NN   N  II  NN   N  G    G  !!!           |
|           W    W  A    A  R    R  N N  N  II  N N  N  G       !!!           |
|           W WW W  AAAAAA  RRRRR   N  N N  II  N  N N  G  GGG   !            |
|           WW  WW  A    A  R   R   N   NN  II  N   NN  G    G                |
|           W    W  A    A  R    R  N    N  II  N    N   GGGG   !!!           |
|                                                                             |
|     You use a magnetic or noncollinear calculation, but did not specify     |
|     the initial magnetic moment with the MAGMOM tag. Note that a            |
|     default of 1 will be used for all atoms. This ferromagnetic setup       |
|     may break the symmetry of the crystal, in particular it may rule        |
|     out finding an antiferromagnetic solution. Thence, we recommend         |
|     setting the initial magnetic moment manually or verifying carefully     |
|     that this magnetic setup is desired.                                    |
|                                                                             |
 -----------------------------------------------------------------------------

 POTCAR:    PAW_PBE Ta 17Jan2003                  
  local pseudopotential read in
  partial core-charges read in
  partial kinetic energy density read in
  atomic valenz-charges read in
  non local Contribution for L=           2  read in
    real space projection operators read in
  non local Contribution for L=           2  read in
    real space projection operators read in
  non local Contribution for L=           0  read in
    real space projection operators read in
  non local Contribution for L=           0  read in
    real space projection operators read in
  non local Contribution for L=           1  read in
    real space projection operators read in
  non local Contribution for L=           1  read in
    real space projection operators read in
    PAW grid and wavefunctions read in
 
   number of l-projection  operators is LMAX  =           6
   number of lm-projection operators is LMMAX =          18
 
 POTCAR:    PAW_PBE Ni 02Aug2007                  
  local pseudopotential read in
  partial core-charges read in
  partial kinetic energy density read in
  atomic valenz-charges read in
  non local Contribution for L=           2  read in
    real space projection operators read in
  non local Contribution for L=           2  read in
    real space projection operators read in
  non local Contribution for L=           0  read in
    real space projection operators read in
  non local Contribution for L=           0  read in
    real space projection operators read in
  non local Contribution for L=           1  read in
    real space projection operators read in
  non local Contribution for L=           1  read in
    real space projection operators read in
    PAW grid and wavefunctions read in
 
   number of l-projection  operators is LMAX  =           6
   number of lm-projection operators is LMMAX =          18
 
 POTCAR:    PAW_PBE Te 08Apr2002                  
  local pseudopotential read in
  partial core-charges read in
  partial kinetic energy density read in
  atomic valenz-charges read in
  non local Contribution for L=           0  read in
    real space projection operators read in
  non local Contribution for L=           0  read in
    real space projection operators read in
  non local Contribution for L=           1  read in
    real space projection operators read in
  non local Contribution for L=           1  read in
    real space projection operators read in
  non local Contribution for L=           2  read in
    real space projection operators read in
    PAW grid and wavefunctions read in
 
   number of l-projection  operators is LMAX  =           5
   number of lm-projection operators is LMMAX =          13
 
 Optimization of the real space projectors (new method)

 maximal supplied QI-value         = 12.85
 optimisation between [QCUT,QGAM] = [  8.87, 17.73] = [ 22.01, 88.06] Ry 
 Optimized for a Real-space Cutoff    1.95 Angstroem

   l    n(q)    QCUT    max X(q) W(low)/X(q) W(high)/X(q)  e(spline) 
   2      9     8.867    62.315    0.12E-03    0.33E-04    0.12E-05
   2      9     8.867    52.185    0.13E-03    0.33E-04    0.12E-05
   0     10     8.867   103.837    0.13E-04    0.28E-04    0.12E-06
   0     10     8.867    59.728    0.12E-04    0.25E-04    0.11E-06
   1     10     8.867    13.958    0.44E-04    0.17E-05    0.15E-06
   1     10     8.867     8.441    0.31E-04    0.26E-05    0.11E-06
 Optimization of the real space projectors (new method)

 maximal supplied QI-value         = 16.25
 optimisation between [QCUT,QGAM] = [  8.78, 17.71] = [ 21.57, 87.87] Ry 
 Optimized for a Real-space Cutoff    1.54 Angstroem

   l    n(q)    QCUT    max X(q) W(low)/X(q) W(high)/X(q)  e(spline) 
   2      7     8.776    60.317    0.16E-03    0.44E-03    0.23E-06
   2      7     8.776    55.921    0.17E-03    0.44E-03    0.23E-06
   0      8     8.776    51.690    0.22E-03    0.25E-03    0.51E-07
   0      8     8.776    30.015    0.20E-03    0.23E-03    0.47E-07
   1      8     8.776    18.849    0.17E-03    0.19E-03    0.10E-06
   1      8     8.776    14.624    0.15E-03    0.15E-03    0.88E-07
 Optimization of the real space projectors (new method)

 maximal supplied QI-value         = 16.25
 optimisation between [QCUT,QGAM] = [  8.78, 17.71] = [ 21.57, 87.87] Ry 
 Optimized for a Real-space Cutoff    1.49 Angstroem

   l    n(q)    QCUT    max X(q) W(low)/X(q) W(high)/X(q)  e(spline) 
   0      8     8.776   224.858    0.15E-03    0.19E-04    0.75E-07
   0      8     8.776   205.313    0.15E-03    0.20E-04    0.76E-07
   1      7     8.776   119.695    0.23E-03    0.47E-03    0.95E-07
   1      7     8.776    84.282    0.23E-03    0.46E-03    0.93E-07
   2      7     8.776     5.599    0.87E-04    0.38E-04    0.37E-07
  PAW_PBE Ta 17Jan2003                  :
 energy of atom  1       EATOM= -130.6506
 kinetic energy error for atom=    0.0116 (will be added to EATOM!!)
  PAW_PBE Ni 02Aug2007                  :
 energy of atom  2       EATOM=-1077.6739
 kinetic energy error for atom=    0.0306 (will be added to EATOM!!)
  PAW_PBE Te 08Apr2002                  :
 energy of atom  3       EATOM= -223.2721
 kinetic energy error for atom=    0.0026 (will be added to EATOM!!)
 
 
 POSCAR: Ta8 Ni12 Te20
  positions in direct lattice
  velocities in cartesian coordinates
 exchange correlation table for  LEXCH =        8
   RHO(1)=    0.500       N(1)  =     2000
   RHO(2)=  100.500       N(2)  =     4000
 


--------------------------------------------------------------------------------------------------------


 ion  position               nearest neighbor table
   1  0.872  0.250  0.497-   5 2.63   8 2.70   8 2.70  19 2.76  18 2.80  18 2.80  11 2.89  11 2.89
                            10 2.96  10 2.96
   2  0.372  0.750  0.503-   6 2.63   7 2.70   7 2.70  20 2.76  17 2.80  17 2.80  12 2.89  12 2.89
                             9 2.96   9 2.96
   3  0.129  0.250  0.497-   7 2.63   6 2.70   6 2.70  19 2.76  14 2.80  14 2.80  15 2.89  15 2.89
                            10 2.96  10 2.96
   4  0.629  0.750  0.503-   8 2.63   5 2.70   5 2.70  20 2.76  13 2.80  13 2.80  16 2.89  16 2.89
                             9 2.96   9 2.96
   5  0.729  0.250  0.470-   8 2.50   8 2.50  11 2.58  11 2.58  13 2.59   1 2.63   4 2.70   4 2.70
                            16 2.74
   6  0.229  0.750  0.530-   7 2.50   7 2.50  12 2.58  12 2.58  14 2.59   2 2.63   3 2.70   3 2.70
                            15 2.74
   7  0.272  0.250  0.470-   6 2.50   6 2.50  15 2.58  15 2.58  17 2.59   3 2.63   2 2.70   2 2.70
                            12 2.74
   8  0.772  0.750  0.530-   5 2.50   5 2.50  16 2.58  16 2.58  18 2.59   4 2.63   1 2.70   1 2.70
                            11 2.74
   9  0.500  0.250  0.494-  17 2.54  13 2.54  20 2.56  20 2.56   2 2.96   2 2.96   4 2.96   4 2.96

  10  0.000  0.750  0.506-  18 2.54  14 2.54  19 2.56  19 2.56   1 2.96   1 2.96   3 2.96   3 2.96

  11  0.804  0.750  0.423-   5 2.58   5 2.58   8 2.74   1 2.89   1 2.89
  12  0.304  0.250  0.577-   6 2.58   6 2.58   7 2.74   2 2.89   2 2.89
  13  0.601  0.250  0.422-   9 2.54   5 2.59   4 2.80   4 2.80  17 3.57
  14  0.101  0.750  0.578-  10 2.54   6 2.59   3 2.80   3 2.80  18 3.57
  15  0.197  0.750  0.423-   7 2.58   7 2.58   6 2.74   3 2.89   3 2.89
  16  0.697  0.250  0.577-   8 2.58   8 2.58   5 2.74   4 2.89   4 2.89
  17  0.400  0.250  0.422-   9 2.54   7 2.59   2 2.80   2 2.80  13 3.57
  18  0.900  0.750  0.578-  10 2.54   8 2.59   1 2.80   1 2.80  14 3.57
  19  0.000  0.250  0.435-  10 2.56  10 2.56   1 2.76   3 2.76
  20  0.500  0.750  0.565-   9 2.56   9 2.56   2 2.76   4 2.76
 
  LATTYP: Found a simple orthorhombic cell.
 ALAT       =     3.7173663731
 B/A-ratio  =     4.7893243875
 C/A-ratio  =     6.7347578740
  
  Lattice vectors:
  
 A1 = (   0.0000000000,  -3.7173663731,   0.0000000000)
 A2 = (  17.8036734280,   0.0000000000,   0.0000000000)
 A3 = (   0.0000000000,   0.0000000000,  25.0355624519)


Analysis of symmetry for initial positions (statically):
=====================================================================
 Subroutine PRICEL returns:
 Original cell was already a primitive cell.
 

 Routine SETGRP: Setting up the symmetry group for a 
 simple orthorhombic supercell.


 Subroutine GETGRP returns: Found  2 space group operations
 (whereof  1 operations were pure point group operations)
 out of a pool of  8 trial point group operations.


The static configuration has the point symmetry C_1 .
 The point group associated with its full space group is C_1h.


Analysis of symmetry for dynamics (positions and initial velocities):
=====================================================================
 Subroutine PRICEL returns:
 Original cell was already a primitive cell.
 

 Routine SETGRP: Setting up the symmetry group for a 
 simple orthorhombic supercell.


 Subroutine GETGRP returns: Found  2 space group operations
 (whereof  1 operations were pure point group operations)
 out of a pool of  8 trial point group operations.


The dynamic configuration has the point symmetry C_1 .
 The point group associated with its full space group is C_1h.


Analysis of structural, dynamic, and magnetic symmetry:
=====================================================================
 Subroutine PRICEL returns:
 Original cell was already a primitive cell.
 

 Routine SETGRP: Setting up the symmetry group for a 
 simple orthorhombic supercell.


 Subroutine GETGRP returns: Found  1 space group operations
 (whereof  1 operations were pure point group operations)
 out of a pool of  8 trial point group operations.


The overall configuration has the point symmetry C_1 .


 Subroutine INISYM returns: Found  1 space group operations
 (whereof  1 operations are pure point group operations),
 and found     1 'primitive' translations


----------------------------------------------------------------------------------------

                                     Primitive cell                                     

  volume of cell :    1656.9230

  direct lattice vectors                    reciprocal lattice vectors
    17.803673428  0.000000000  0.000000000     0.056168184  0.000000000  0.000000000
     0.000000000  3.717366373  0.000000000     0.000000000  0.269007652 -0.000000000
     0.000000000  0.000000000 25.035562452     0.000000000  0.000000000  0.039943181

  length of vectors
    17.803673428  3.717366373 25.035562452     0.056168184  0.269007652  0.039943181

  position of ions in fractional coordinates (direct lattice)
     0.871673196  0.249999970  0.496965903
     0.371656673  0.749999881  0.503047488
     0.129144954  0.249999970  0.496950766
     0.629189849  0.749999881  0.503056190
     0.728969198  0.249999970  0.470428878
     0.228940622  0.749999881  0.529607779
     0.271823733  0.249999970  0.470414353
     0.771838868  0.749999881  0.529614355
     0.500292249  0.249999970  0.494117339
     0.000316075  0.749999881  0.505863449
     0.803873609  0.749999881  0.422630908
     0.303845329  0.249999970  0.577394114
     0.600616500  0.249999970  0.421900216
     0.100570225  0.749999881  0.578112336
     0.196977383  0.749999881  0.422614921
     0.696977929  0.249999970  0.577406064
     0.400112091  0.249999970  0.421842527
     0.900135743  0.749999881  0.578159661
     0.000401553  0.249999970  0.435303419
     0.500401798  0.749999881  0.564661933

  ion indices of the primitive-cell ions
   primitive index   ion index
                 1           1
                 2           2
                 3           3
                 4           4
                 5           5
                 6           6
                 7           7
                 8           8
                 9           9
                10          10
                11          11
                12          12
                13          13
                14          14
                15          15
                16          16
                17          17
                18          18
                19          19
                20          20

----------------------------------------------------------------------------------------

 
 
 KPOINTS: kpoints along symmetry lines            

Interpolating k-points between supplied coordinates.

 Line segments in fractional coordinates (reciprocal lattice):
    0.000000  0.000000  0.000000  ...  0.500000  0.000000  0.000000
    0.500000  0.000000  0.000000  ...  0.500000  0.500000  0.000000
    0.500000  0.500000  0.000000  ...  0.000000  0.500000  0.000000
    0.000000  0.500000  0.000000  ...  0.000000  0.000000  0.000000

 Generated    30 points on each line segment, for a total of    120 k-points:

 Following reciprocal coordinates:
            Coordinates               Weight
  0.000000  0.000000  0.000000      0.008333
  0.017241  0.000000  0.000000      0.008333
  0.034483  0.000000  0.000000      0.008333
  0.051724  0.000000  0.000000      0.008333
  0.068966  0.000000  0.000000      0.008333
  0.086207  0.000000  0.000000      0.008333
  0.103448  0.000000  0.000000      0.008333
  0.120690  0.000000  0.000000      0.008333
  0.137931  0.000000  0.000000      0.008333
  0.155172  0.000000  0.000000      0.008333
  0.172414  0.000000  0.000000      0.008333
  0.189655  0.000000  0.000000      0.008333
  0.206897  0.000000  0.000000      0.008333
  0.224138  0.000000  0.000000      0.008333
  0.241379  0.000000  0.000000      0.008333
  0.258621  0.000000  0.000000      0.008333
  0.275862  0.000000  0.000000      0.008333
  0.293103  0.000000  0.000000      0.008333
  0.310345  0.000000  0.000000      0.008333
  0.327586  0.000000  0.000000      0.008333
  0.344828  0.000000  0.000000      0.008333
  0.362069  0.000000  0.000000      0.008333
  0.379310  0.000000  0.000000      0.008333
  0.396552  0.000000  0.000000      0.008333
  0.413793  0.000000  0.000000      0.008333
  0.431034  0.000000  0.000000      0.008333
  0.448276  0.000000  0.000000      0.008333
  0.465517  0.000000  0.000000      0.008333
  0.482759  0.000000  0.000000      0.008333
  0.500000  0.000000  0.000000      0.008333
  0.500000  0.000000  0.000000      0.008333
  0.500000  0.017241  0.000000      0.008333
  0.500000  0.034483  0.000000      0.008333
  0.500000  0.051724  0.000000      0.008333
  0.500000  0.068966  0.000000      0.008333
  0.500000  0.086207  0.000000      0.008333
  0.500000  0.103448  0.000000      0.008333
  0.500000  0.120690  0.000000      0.008333
  0.500000  0.137931  0.000000      0.008333
  0.500000  0.155172  0.000000      0.008333
  0.500000  0.172414  0.000000      0.008333
  0.500000  0.189655  0.000000      0.008333
  0.500000  0.206897  0.000000      0.008333
  0.500000  0.224138  0.000000      0.008333
  0.500000  0.241379  0.000000      0.008333
  0.500000  0.258621  0.000000      0.008333
  0.500000  0.275862  0.000000      0.008333
  0.500000  0.293103  0.000000      0.008333
  0.500000  0.310345  0.000000      0.008333
  0.500000  0.327586  0.000000      0.008333
  0.500000  0.344828  0.000000      0.008333
  0.500000  0.362069  0.000000      0.008333
  0.500000  0.379310  0.000000      0.008333
  0.500000  0.396552  0.000000      0.008333
  0.500000  0.413793  0.000000      0.008333
  0.500000  0.431034  0.000000      0.008333
  0.500000  0.448276  0.000000      0.008333
  0.500000  0.465517  0.000000      0.008333
  0.500000  0.482759  0.000000      0.008333
  0.500000  0.500000  0.000000      0.008333
  0.500000  0.500000  0.000000      0.008333
  0.482759  0.500000  0.000000      0.008333
  0.465517  0.500000  0.000000      0.008333
  0.448276  0.500000  0.000000      0.008333
  0.431034  0.500000  0.000000      0.008333
  0.413793  0.500000  0.000000      0.008333
  0.396552  0.500000  0.000000      0.008333
  0.379310  0.500000  0.000000      0.008333
  0.362069  0.500000  0.000000      0.008333
  0.344828  0.500000  0.000000      0.008333
  0.327586  0.500000  0.000000      0.008333
  0.310345  0.500000  0.000000      0.008333
  0.293103  0.500000  0.000000      0.008333
  0.275862  0.500000  0.000000      0.008333
  0.258621  0.500000  0.000000      0.008333
  0.241379  0.500000  0.000000      0.008333
  0.224138  0.500000  0.000000      0.008333
  0.206897  0.500000  0.000000      0.008333
  0.189655  0.500000  0.000000      0.008333
  0.172414  0.500000  0.000000      0.008333
  0.155172  0.500000  0.000000      0.008333
  0.137931  0.500000  0.000000      0.008333
  0.120690  0.500000  0.000000      0.008333
  0.103448  0.500000  0.000000      0.008333
  0.086207  0.500000  0.000000      0.008333
  0.068966  0.500000  0.000000      0.008333
  0.051724  0.500000  0.000000      0.008333
  0.034483  0.500000  0.000000      0.008333
  0.017241  0.500000  0.000000      0.008333
  0.000000  0.500000  0.000000      0.008333
  0.000000  0.500000  0.000000      0.008333
  0.000000  0.482759  0.000000      0.008333
  0.000000  0.465517  0.000000      0.008333
  0.000000  0.448276  0.000000      0.008333
  0.000000  0.431034  0.000000      0.008333
  0.000000  0.413793  0.000000      0.008333
  0.000000  0.396552  0.000000      0.008333
  0.000000  0.379310  0.000000      0.008333
  0.000000  0.362069  0.000000      0.008333
  0.000000  0.344828  0.000000      0.008333
  0.000000  0.327586  0.000000      0.008333
  0.000000  0.310345  0.000000      0.008333
  0.000000  0.293103  0.000000      0.008333
  0.000000  0.275862  0.000000      0.008333
  0.000000  0.258621  0.000000      0.008333
  0.000000  0.241379  0.000000      0.008333
  0.000000  0.224138  0.000000      0.008333
  0.000000  0.206897  0.000000      0.008333
  0.000000  0.189655  0.000000      0.008333
  0.000000  0.172414  0.000000      0.008333
  0.000000  0.155172  0.000000      0.008333
  0.000000  0.137931  0.000000      0.008333
  0.000000  0.120690  0.000000      0.008333
  0.000000  0.103448  0.000000      0.008333
  0.000000  0.086207  0.000000      0.008333
  0.000000  0.068966  0.000000      0.008333
  0.000000  0.051724  0.000000      0.008333
  0.000000  0.034483  0.000000      0.008333
  0.000000  0.017241  0.000000      0.008333
  0.000000  0.000000  0.000000      0.008333

 Following cartesian coordinates:
            Coordinates               Weight
  0.000000  0.000000  0.000000      0.008333
  0.000968  0.000000  0.000000      0.008333
  0.001937  0.000000  0.000000      0.008333
  0.002905  0.000000  0.000000      0.008333
  0.003874  0.000000  0.000000      0.008333
  0.004842  0.000000  0.000000      0.008333
  0.005811  0.000000  0.000000      0.008333
  0.006779  0.000000  0.000000      0.008333
  0.007747  0.000000  0.000000      0.008333
  0.008716  0.000000  0.000000      0.008333
  0.009684  0.000000  0.000000      0.008333
  0.010653  0.000000  0.000000      0.008333
  0.011621  0.000000  0.000000      0.008333
  0.012589  0.000000  0.000000      0.008333
  0.013558  0.000000  0.000000      0.008333
  0.014526  0.000000  0.000000      0.008333
  0.015495  0.000000  0.000000      0.008333
  0.016463  0.000000  0.000000      0.008333
  0.017432  0.000000  0.000000      0.008333
  0.018400  0.000000  0.000000      0.008333
  0.019368  0.000000  0.000000      0.008333
  0.020337  0.000000  0.000000      0.008333
  0.021305  0.000000  0.000000      0.008333
  0.022274  0.000000  0.000000      0.008333
  0.023242  0.000000  0.000000      0.008333
  0.024210  0.000000  0.000000      0.008333
  0.025179  0.000000  0.000000      0.008333
  0.026147  0.000000  0.000000      0.008333
  0.027116  0.000000  0.000000      0.008333
  0.028084  0.000000  0.000000      0.008333
  0.028084  0.000000  0.000000      0.008333
  0.028084  0.004638 -0.000000      0.008333
  0.028084  0.009276 -0.000000      0.008333
  0.028084  0.013914 -0.000000      0.008333
  0.028084  0.018552 -0.000000      0.008333
  0.028084  0.023190 -0.000000      0.008333
  0.028084  0.027828 -0.000000      0.008333
  0.028084  0.032466 -0.000000      0.008333
  0.028084  0.037105 -0.000000      0.008333
  0.028084  0.041743 -0.000000      0.008333
  0.028084  0.046381 -0.000000      0.008333
  0.028084  0.051019 -0.000000      0.008333
  0.028084  0.055657 -0.000000      0.008333
  0.028084  0.060295 -0.000000      0.008333
  0.028084  0.064933 -0.000000      0.008333
  0.028084  0.069571 -0.000000      0.008333
  0.028084  0.074209 -0.000000      0.008333
  0.028084  0.078847 -0.000000      0.008333
  0.028084  0.083485 -0.000000      0.008333
  0.028084  0.088123 -0.000000      0.008333
  0.028084  0.092761 -0.000000      0.008333
  0.028084  0.097399 -0.000000      0.008333
  0.028084  0.102037 -0.000000      0.008333
  0.028084  0.106675 -0.000000      0.008333
  0.028084  0.111314 -0.000000      0.008333
  0.028084  0.115952 -0.000000      0.008333
  0.028084  0.120590 -0.000000      0.008333
  0.028084  0.125228 -0.000000      0.008333
  0.028084  0.129866 -0.000000      0.008333
  0.028084  0.134504 -0.000000      0.008333
  0.028084  0.134504 -0.000000      0.008333
  0.027116  0.134504 -0.000000      0.008333
  0.026147  0.134504 -0.000000      0.008333
  0.025179  0.134504 -0.000000      0.008333
  0.024210  0.134504 -0.000000      0.008333
  0.023242  0.134504 -0.000000      0.008333
  0.022274  0.134504 -0.000000      0.008333
  0.021305  0.134504 -0.000000      0.008333
  0.020337  0.134504 -0.000000      0.008333
  0.019368  0.134504 -0.000000      0.008333
  0.018400  0.134504 -0.000000      0.008333
  0.017432  0.134504 -0.000000      0.008333
  0.016463  0.134504 -0.000000      0.008333
  0.015495  0.134504 -0.000000      0.008333
  0.014526  0.134504 -0.000000      0.008333
  0.013558  0.134504 -0.000000      0.008333
  0.012589  0.134504 -0.000000      0.008333
  0.011621  0.134504 -0.000000      0.008333
  0.010653  0.134504 -0.000000      0.008333
  0.009684  0.134504 -0.000000      0.008333
  0.008716  0.134504 -0.000000      0.008333
  0.007747  0.134504 -0.000000      0.008333
  0.006779  0.134504 -0.000000      0.008333
  0.005811  0.134504 -0.000000      0.008333
  0.004842  0.134504 -0.000000      0.008333
  0.003874  0.134504 -0.000000      0.008333
  0.002905  0.134504 -0.000000      0.008333
  0.001937  0.134504 -0.000000      0.008333
  0.000968  0.134504 -0.000000      0.008333
  0.000000  0.134504 -0.000000      0.008333
  0.000000  0.134504 -0.000000      0.008333
  0.000000  0.129866 -0.000000      0.008333
  0.000000  0.125228 -0.000000      0.008333
  0.000000  0.120590 -0.000000      0.008333
  0.000000  0.115952 -0.000000      0.008333
  0.000000  0.111314 -0.000000      0.008333
  0.000000  0.106675 -0.000000      0.008333
  0.000000  0.102037 -0.000000      0.008333
  0.000000  0.097399 -0.000000      0.008333
  0.000000  0.092761 -0.000000      0.008333
  0.000000  0.088123 -0.000000      0.008333
  0.000000  0.083485 -0.000000      0.008333
  0.000000  0.078847 -0.000000      0.008333
  0.000000  0.074209 -0.000000      0.008333
  0.000000  0.069571 -0.000000      0.008333
  0.000000  0.064933 -0.000000      0.008333
  0.000000  0.060295 -0.000000      0.008333
  0.000000  0.055657 -0.000000      0.008333
  0.000000  0.051019 -0.000000      0.008333
  0.000000  0.046381 -0.000000      0.008333
  0.000000  0.041743 -0.000000      0.008333
  0.000000  0.037105 -0.000000      0.008333
  0.000000  0.032466 -0.000000      0.008333
  0.000000  0.027828 -0.000000      0.008333
  0.000000  0.023190 -0.000000      0.008333
  0.000000  0.018552 -0.000000      0.008333
  0.000000  0.013914 -0.000000      0.008333
  0.000000  0.009276 -0.000000      0.008333
  0.000000  0.004638 -0.000000      0.008333
  0.000000  0.000000  0.000000      0.008333
 


--------------------------------------------------------------------------------------------------------




 Dimension of arrays:
   k-points           NKPTS =    120   k-points in BZ     NKDIM =    120   number of bands    NBANDS=    280
   number of dos      NEDOS =   6001   number of ions     NIONS =     20
   non local maximal  LDIM  =      6   non local SUM 2l+1 LMDIM =     18
   total plane-waves  NPLWV = 373248
   max r-space proj   IRMAX =   7047   max aug-charges    IRDMAX= 122858
   dimension x,y,z NGX =   108 NGY =   24 NGZ =  144
   dimension x,y,z NGXF=   216 NGYF=   48 NGZF=  288
   support grid    NGXF=   432 NGYF=   96 NGZF=  576
   ions per type =               4   6  10
   NGX,Y,Z   is equivalent  to a cutoff of  10.08, 10.73,  9.56 a.u.
   NGXF,Y,Z  is equivalent  to a cutoff of  20.17, 21.47, 19.12 a.u.

 SYSTEM =  unknown system                          
 POSCAR =  Ta8 Ni12 Te20                           

 Startparameter for this run:
   NWRITE =      1    write-flag & timer
   PREC   = accura    normal or accurate (medium, high low for compatibility)
   ISTART =      0    job   : 0-new  1-cont  2-samecut
   ICHARG =     11    charge: 1-file 2-atom 10-const
   ISPIN  =      1    spin polarized calculation?
   LNONCOLLINEAR =      T non collinear calculations
   LSORBIT =      T    spin-orbit coupling
   INIWAV =      1    electr: 0-lowe 1-rand  2-diag
   LASPH  =      T    aspherical Exc in radial PAW
 Electronic Relaxation 1
   ENCUT  =  303.2 eV  22.29 Ry    4.72 a.u.  25.28  5.28 35.55*2*pi/ulx,y,z
   ENINI  =  303.2     initial cutoff
   ENAUG  =  544.6 eV  augmentation charge cutoff
   NELM   =    200;   NELMIN=  6; NELMDL=-12     # of ELM steps 
   EDIFF  = 0.1E-05   stopping-criterion for ELM
   LREAL  =      T    real-space projection
   NLSPLINE    = F    spline interpolate recip. space projectors
   LCOMPAT=      F    compatible to vasp.4.4
   GGA_COMPAT  = T    GGA compatible to vasp.4.4-vasp.4.6
   LMAXPAW     = -100 max onsite density
   LMAXMIX     =    2 max onsite mixed and CHGCAR
   VOSKOWN=      0    Vosko Wilk Nusair interpolation
   ROPT   =   -0.00025  -0.00025  -0.00025
 Ionic relaxation
   EDIFFG = -.1E-01   stopping-criterion for IOM
   NSW    =      0    number of steps for IOM
   NBLOCK =      1;   KBLOCK =      1    inner block; outer block 
   IBRION =     -1    ionic relax: 0-MD 1-quasi-New 2-CG
   NFREE  =      1    steps in history (QN), initial steepest desc. (CG)
   ISIF   =      3    stress and relaxation
   IWAVPR =     10    prediction:  0-non 1-charg 2-wave 3-comb
   ISYM   =      2    0-nonsym 1-usesym 2-fastsym
   LCORR  =      T    Harris-Foulkes like correction to forces

   POTIM  = 0.5000    time-step for ionic-motion
   TEIN   =    0.0    initial temperature
   TEBEG  =    0.0;   TEEND  =   0.0 temperature during run
   SMASS  =  -3.00    Nose mass-parameter (am)
   estimated Nose-frequenzy (Omega)   =  0.10E-29 period in steps = 0.13E+47 mass=  -0.724E-26a.u.
   SCALEE = 1.0000    scale energy and forces
   NPACO  =    256;   APACO  = 10.0  distance and # of slots for P.C.
   PSTRESS=    0.0 pullay stress

  Mass of Ions in am
   POMASS = 180.95 58.69127.60
  Ionic Valenz
   ZVAL   =   5.00 10.00  6.00
  Atomic Wigner-Seitz radii
   RWIGS  =  -1.00 -1.00 -1.00
  virtual crystal weights 
   VCA    =   1.00  1.00  1.00
   NELECT =     140.0000    total number of electrons
   NUPDOWN=      -1.0000    fix difference up-down

 DOS related values:
   EMIN   =  10.00;   EMAX   =-10.00  energy-range for DOS
   EFERMI =   0.00;   METHOD = LEGACY      
   ISMEAR =     0;   SIGMA  =   0.01  broadening in eV -4-tet -1-fermi 0-gaus

 Electronic relaxation 2 (details)
   IALGO  =     38    algorithm
   LDIAG  =      T    sub-space diagonalisation (order eigenvalues)
   LSUBROT=      F    optimize rotation matrix (better conditioning)
   TURBO    =      0    0=normal 1=particle mesh
   IRESTART =      0    0=no restart 2=restart with 2 vectors
   NREBOOT  =      0    no. of reboots
   NMIN     =      0    reboot dimension
   EREF     =   0.00    reference energy to select bands
   IMIX   =      4    mixing-type and parameters
     AMIX     =   0.10;   BMIX     =  0.00
     AMIX_MAG =   0.40;   BMIX_MAG =  0.00
     AMIN     =   0.10
     WC   =   100.;   INIMIX=   1;  MIXPRE=   1;  MAXMIX= -45

 Intra band minimization:
   WEIMIN = 0.0000     energy-eigenvalue tresh-hold
   EBREAK =  0.89E-09  absolut break condition
   DEPER  =   0.30     relativ break condition  

   TIME   =   0.40     timestep for ELM

  volume/ion in A,a.u.               =      82.85       559.07
  Fermi-wavevector in a.u.,A,eV,Ry     =   0.718373  1.357528  7.021421  0.516060
  Thomas-Fermi vector in A             =   1.807294
 
 Write flags
   LWAVE        =      F    write WAVECAR
   LDOWNSAMPLE  =      F    k-point downsampling of WAVECAR
   LCHARG       =      F    write CHGCAR
   LVTOT        =      F    write LOCPOT, total local potential
   LVHAR        =      F    write LOCPOT, Hartree potential only
   LELF         =      F    write electronic localiz. function (ELF)
   LORBIT       =     10    0 simple, 1 ext, 2 COOP (PROOUT), +10 PAW based schemes


 Dipole corrections
   LMONO  =      F    monopole corrections only (constant potential shift)
   LDIPOL =      F    correct potential (dipole corrections)
   IDIPOL =      0    1-x, 2-y, 3-z, 4-all directions 
   EPSILON=  1.0000000 bulk dielectric constant

 Exchange correlation treatment:
   GGA     =    --    GGA type
   LEXCH   =     8    internal setting for exchange type
   LIBXC   =     F    Libxc                    
   VOSKOWN =     0    Vosko Wilk Nusair interpolation
   LHFCALC =     F    Hartree Fock is set to
   LHFONE  =     F    Hartree Fock one center treatment
   AEXX    =    0.0000 exact exchange contribution

 Linear response parameters
   LEPSILON=     F    determine dielectric tensor
   LRPA    =     F    only Hartree local field effects (RPA)
   LNABLA  =     F    use nabla operator in PAW spheres
   LVEL    =     F    velocity operator in full k-point grid
   CSHIFT  =0.1000    complex shift for real part using Kramers Kronig
   OMEGAMAX=  -1.0    maximum frequency
   DEG_THRESHOLD= 0.2000000E-02 threshold for treating states as degnerate
   RTIME   =   -0.100 relaxation time in fs
  (WPLASMAI=    0.000 imaginary part of plasma frequency in eV, 0.658/RTIME)
   DFIELD  = 0.0000000 0.0000000 0.0000000 field for delta impulse in time
 
  Optional k-point grid parameters
   LKPOINTS_OPT  =     F    use optional k-point grid
   KPOINTS_OPT_MODE=     1    mode for optional k-point grid
 
 Orbital magnetization related:
   ORBITALMAG=     F  switch on orbital magnetization
   LCHIMAG   =     F  perturbation theory with respect to B field
   DQ        =  0.001000  dq finite difference perturbation B field
   LLRAUG    =     F  two centre corrections for induced B field
   LBONE     =     F  B-component reconstruction in AE one-centre
   LVGVCALC  =     T  calculate vGv susceptibility
   LVGVAPPL  =     F  apply vGv susceptibility instead of pGv for G=0

 Random number generation:
   RANDOM_GENERATOR = DEFAULT
   PCG_SEED         = not used


--------------------------------------------------------------------------------------------------------


 Static calculation
 charge density and potential remain constant during run
 non collinear spin polarized calculation
 Variant of blocked Davidson
 Davidson routine will perform the subspace rotation
 perform sub-space diagonalisation
    after iterative eigenvector-optimisation
 no mixing
 using additional bands          210
 real space projection scheme for non local part
 use partial core corrections
 calculate Harris-corrections to forces 
   (improved forces if not selfconsistent)
 use gradient corrections 
 WARNING: stress and forces are not correct
  (second derivative of E(xc) not defined)
 use of overlap-Matrix (Vanderbilt PP)
 Gauss-broadening in eV      SIGMA  =   0.01


--------------------------------------------------------------------------------------------------------


  energy-cutoff  :      303.22
  volume of cell :     1656.92
      direct lattice vectors                 reciprocal lattice vectors
    17.803673428  0.000000000  0.000000000     0.056168184  0.000000000  0.000000000
     0.000000000  3.717366373  0.000000000     0.000000000  0.269007652 -0.000000000
     0.000000000  0.000000000 25.035562452     0.000000000  0.000000000  0.039943181

  length of vectors
    17.803673428  3.717366373 25.035562452     0.056168184  0.269007652  0.039943181


 
 k-points in units of 2pi/SCALE and weight: kpoints along symmetry lines            
   0.00000000  0.00000000  0.00000000       0.008
   0.00096842  0.00000000  0.00000000       0.008
   0.00193683  0.00000000  0.00000000       0.008
   0.00290525  0.00000000  0.00000000       0.008
   0.00387367  0.00000000  0.00000000       0.008
   0.00484208  0.00000000  0.00000000       0.008
   0.00581050  0.00000000  0.00000000       0.008
   0.00677892  0.00000000  0.00000000       0.008
   0.00774734  0.00000000  0.00000000       0.008
   0.00871575  0.00000000  0.00000000       0.008
   0.00968417  0.00000000  0.00000000       0.008
   0.01065259  0.00000000  0.00000000       0.008
   0.01162100  0.00000000  0.00000000       0.008
   0.01258942  0.00000000  0.00000000       0.008
   0.01355784  0.00000000  0.00000000       0.008
   0.01452625  0.00000000  0.00000000       0.008
   0.01549467  0.00000000  0.00000000       0.008
   0.01646309  0.00000000  0.00000000       0.008
   0.01743151  0.00000000  0.00000000       0.008
   0.01839992  0.00000000  0.00000000       0.008
   0.01936834  0.00000000  0.00000000       0.008
   0.02033676  0.00000000  0.00000000       0.008
   0.02130517  0.00000000  0.00000000       0.008
   0.02227359  0.00000000  0.00000000       0.008
   0.02324201  0.00000000  0.00000000       0.008
   0.02421042  0.00000000  0.00000000       0.008
   0.02517884  0.00000000  0.00000000       0.008
   0.02614726  0.00000000  0.00000000       0.008
   0.02711567  0.00000000  0.00000000       0.008
   0.02808409  0.00000000  0.00000000       0.008
   0.02808409  0.00000000  0.00000000       0.008
   0.02808409  0.00463806 -0.00000000       0.008
   0.02808409  0.00927613 -0.00000000       0.008
   0.02808409  0.01391419 -0.00000000       0.008
   0.02808409  0.01855225 -0.00000000       0.008
   0.02808409  0.02319031 -0.00000000       0.008
   0.02808409  0.02782838 -0.00000000       0.008
   0.02808409  0.03246644 -0.00000000       0.008
   0.02808409  0.03710450 -0.00000000       0.008
   0.02808409  0.04174257 -0.00000000       0.008
   0.02808409  0.04638063 -0.00000000       0.008
   0.02808409  0.05101869 -0.00000000       0.008
   0.02808409  0.05565676 -0.00000000       0.008
   0.02808409  0.06029482 -0.00000000       0.008
   0.02808409  0.06493288 -0.00000000       0.008
   0.02808409  0.06957094 -0.00000000       0.008
   0.02808409  0.07420901 -0.00000000       0.008
   0.02808409  0.07884707 -0.00000000       0.008
   0.02808409  0.08348513 -0.00000000       0.008
   0.02808409  0.08812320 -0.00000000       0.008
   0.02808409  0.09276126 -0.00000000       0.008
   0.02808409  0.09739932 -0.00000000       0.008
   0.02808409  0.10203739 -0.00000000       0.008
   0.02808409  0.10667545 -0.00000000       0.008
   0.02808409  0.11131351 -0.00000000       0.008
   0.02808409  0.11595157 -0.00000000       0.008
   0.02808409  0.12058964 -0.00000000       0.008
   0.02808409  0.12522770 -0.00000000       0.008
   0.02808409  0.12986576 -0.00000000       0.008
   0.02808409  0.13450383 -0.00000000       0.008
   0.02808409  0.13450383 -0.00000000       0.008
   0.02711567  0.13450383 -0.00000000       0.008
   0.02614726  0.13450383 -0.00000000       0.008
   0.02517884  0.13450383 -0.00000000       0.008
   0.02421042  0.13450383 -0.00000000       0.008
   0.02324201  0.13450383 -0.00000000       0.008
   0.02227359  0.13450383 -0.00000000       0.008
   0.02130517  0.13450383 -0.00000000       0.008
   0.02033676  0.13450383 -0.00000000       0.008
   0.01936834  0.13450383 -0.00000000       0.008
   0.01839992  0.13450383 -0.00000000       0.008
   0.01743151  0.13450383 -0.00000000       0.008
   0.01646309  0.13450383 -0.00000000       0.008
   0.01549467  0.13450383 -0.00000000       0.008
   0.01452625  0.13450383 -0.00000000       0.008
   0.01355784  0.13450383 -0.00000000       0.008
   0.01258942  0.13450383 -0.00000000       0.008
   0.01162100  0.13450383 -0.00000000       0.008
   0.01065259  0.13450383 -0.00000000       0.008
   0.00968417  0.13450383 -0.00000000       0.008
   0.00871575  0.13450383 -0.00000000       0.008
   0.00774734  0.13450383 -0.00000000       0.008
   0.00677892  0.13450383 -0.00000000       0.008
   0.00581050  0.13450383 -0.00000000       0.008
   0.00484208  0.13450383 -0.00000000       0.008
   0.00387367  0.13450383 -0.00000000       0.008
   0.00290525  0.13450383 -0.00000000       0.008
   0.00193683  0.13450383 -0.00000000       0.008
   0.00096842  0.13450383 -0.00000000       0.008
   0.00000000  0.13450383 -0.00000000       0.008
   0.00000000  0.13450383 -0.00000000       0.008
   0.00000000  0.12986576 -0.00000000       0.008
   0.00000000  0.12522770 -0.00000000       0.008
   0.00000000  0.12058964 -0.00000000       0.008
   0.00000000  0.11595157 -0.00000000       0.008
   0.00000000  0.11131351 -0.00000000       0.008
   0.00000000  0.10667545 -0.00000000       0.008
   0.00000000  0.10203739 -0.00000000       0.008
   0.00000000  0.09739932 -0.00000000       0.008
   0.00000000  0.09276126 -0.00000000       0.008
   0.00000000  0.08812320 -0.00000000       0.008
   0.00000000  0.08348513 -0.00000000       0.008
   0.00000000  0.07884707 -0.00000000       0.008
   0.00000000  0.07420901 -0.00000000       0.008
   0.00000000  0.06957094 -0.00000000       0.008
   0.00000000  0.06493288 -0.00000000       0.008
   0.00000000  0.06029482 -0.00000000       0.008
   0.00000000  0.05565676 -0.00000000       0.008
   0.00000000  0.05101869 -0.00000000       0.008
   0.00000000  0.04638063 -0.00000000       0.008
   0.00000000  0.04174257 -0.00000000       0.008
   0.00000000  0.03710450 -0.00000000       0.008
   0.00000000  0.03246644 -0.00000000       0.008
   0.00000000  0.02782838 -0.00000000       0.008
   0.00000000  0.02319031 -0.00000000       0.008
   0.00000000  0.01855225 -0.00000000       0.008
   0.00000000  0.01391419 -0.00000000       0.008
   0.00000000  0.00927613 -0.00000000       0.008
   0.00000000  0.00463806 -0.00000000       0.008
   0.00000000  0.00000000  0.00000000       0.008
 
 k-points in reciprocal lattice and weights: kpoints along symmetry lines            
   0.00000000  0.00000000  0.00000000       0.008
   0.01724138  0.00000000  0.00000000       0.008
   0.03448276  0.00000000  0.00000000       0.008
   0.05172414  0.00000000  0.00000000       0.008
   0.06896552  0.00000000  0.00000000       0.008
   0.08620690  0.00000000  0.00000000       0.008
   0.10344828  0.00000000  0.00000000       0.008
   0.12068966  0.00000000  0.00000000       0.008
   0.13793103  0.00000000  0.00000000       0.008
   0.15517241  0.00000000  0.00000000       0.008
   0.17241379  0.00000000  0.00000000       0.008
   0.18965517  0.00000000  0.00000000       0.008
   0.20689655  0.00000000  0.00000000       0.008
   0.22413793  0.00000000  0.00000000       0.008
   0.24137931  0.00000000  0.00000000       0.008
   0.25862069  0.00000000  0.00000000       0.008
   0.27586207  0.00000000  0.00000000       0.008
   0.29310345  0.00000000  0.00000000       0.008
   0.31034483  0.00000000  0.00000000       0.008
   0.32758621  0.00000000  0.00000000       0.008
   0.34482759  0.00000000  0.00000000       0.008
   0.36206897  0.00000000  0.00000000       0.008
   0.37931034  0.00000000  0.00000000       0.008
   0.39655172  0.00000000  0.00000000       0.008
   0.41379310  0.00000000  0.00000000       0.008
   0.43103448  0.00000000  0.00000000       0.008
   0.44827586  0.00000000  0.00000000       0.008
   0.46551724  0.00000000  0.00000000       0.008
   0.48275862  0.00000000  0.00000000       0.008
   0.50000000  0.00000000  0.00000000       0.008
   0.50000000  0.00000000  0.00000000       0.008
   0.50000000  0.01724138  0.00000000       0.008
   0.50000000  0.03448276  0.00000000       0.008
   0.50000000  0.05172414  0.00000000       0.008
   0.50000000  0.06896552  0.00000000       0.008
   0.50000000  0.08620690  0.00000000       0.008
   0.50000000  0.10344828  0.00000000       0.008
   0.50000000  0.12068966  0.00000000       0.008
   0.50000000  0.13793103  0.00000000       0.008
   0.50000000  0.15517241  0.00000000       0.008
   0.50000000  0.17241379  0.00000000       0.008
   0.50000000  0.18965517  0.00000000       0.008
   0.50000000  0.20689655  0.00000000       0.008
   0.50000000  0.22413793  0.00000000       0.008
   0.50000000  0.24137931  0.00000000       0.008
   0.50000000  0.25862069  0.00000000       0.008
   0.50000000  0.27586207  0.00000000       0.008
   0.50000000  0.29310345  0.00000000       0.008
   0.50000000  0.31034483  0.00000000       0.008
   0.50000000  0.32758621  0.00000000       0.008
   0.50000000  0.34482759  0.00000000       0.008
   0.50000000  0.36206897  0.00000000       0.008
   0.50000000  0.37931034  0.00000000       0.008
   0.50000000  0.39655172  0.00000000       0.008
   0.50000000  0.41379310  0.00000000       0.008
   0.50000000  0.43103448  0.00000000       0.008
   0.50000000  0.44827586  0.00000000       0.008
   0.50000000  0.46551724  0.00000000       0.008
   0.50000000  0.48275862  0.00000000       0.008
   0.50000000  0.50000000  0.00000000       0.008
   0.50000000  0.50000000  0.00000000       0.008
   0.48275862  0.50000000  0.00000000       0.008
   0.46551724  0.50000000  0.00000000       0.008
   0.44827586  0.50000000  0.00000000       0.008
   0.43103448  0.50000000  0.00000000       0.008
   0.41379310  0.50000000  0.00000000       0.008
   0.39655172  0.50000000  0.00000000       0.008
   0.37931034  0.50000000  0.00000000       0.008
   0.36206897  0.50000000  0.00000000       0.008
   0.34482759  0.50000000  0.00000000       0.008
   0.32758621  0.50000000  0.00000000       0.008
   0.31034483  0.50000000  0.00000000       0.008
   0.29310345  0.50000000  0.00000000       0.008
   0.27586207  0.50000000  0.00000000       0.008
   0.25862069  0.50000000  0.00000000       0.008
   0.24137931  0.50000000  0.00000000       0.008
   0.22413793  0.50000000  0.00000000       0.008
   0.20689655  0.50000000  0.00000000       0.008
   0.18965517  0.50000000  0.00000000       0.008
   0.17241379  0.50000000  0.00000000       0.008
   0.15517241  0.50000000  0.00000000       0.008
   0.13793103  0.50000000  0.00000000       0.008
   0.12068966  0.50000000  0.00000000       0.008
   0.10344828  0.50000000  0.00000000       0.008
   0.08620690  0.50000000  0.00000000       0.008
   0.06896552  0.50000000  0.00000000       0.008
   0.05172414  0.50000000  0.00000000       0.008
   0.03448276  0.50000000  0.00000000       0.008
   0.01724138  0.50000000  0.00000000       0.008
   0.00000000  0.50000000  0.00000000       0.008
   0.00000000  0.50000000  0.00000000       0.008
   0.00000000  0.48275862  0.00000000       0.008
   0.00000000  0.46551724  0.00000000       0.008
   0.00000000  0.44827586  0.00000000       0.008
   0.00000000  0.43103448  0.00000000       0.008
   0.00000000  0.41379310  0.00000000       0.008
   0.00000000  0.39655172  0.00000000       0.008
   0.00000000  0.37931034  0.00000000       0.008
   0.00000000  0.36206897  0.00000000       0.008
   0.00000000  0.34482759  0.00000000       0.008
   0.00000000  0.32758621  0.00000000       0.008
   0.00000000  0.31034483  0.00000000       0.008
   0.00000000  0.29310345  0.00000000       0.008
   0.00000000  0.27586207  0.00000000       0.008
   0.00000000  0.25862069  0.00000000       0.008
   0.00000000  0.24137931  0.00000000       0.008
   0.00000000  0.22413793  0.00000000       0.008
   0.00000000  0.20689655  0.00000000       0.008
   0.00000000  0.18965517  0.00000000       0.008
   0.00000000  0.17241379  0.00000000       0.008
   0.00000000  0.15517241  0.00000000       0.008
   0.00000000  0.13793103  0.00000000       0.008
   0.00000000  0.12068966  0.00000000       0.008
   0.00000000  0.10344828  0.00000000       0.008
   0.00000000  0.08620690  0.00000000       0.008
   0.00000000  0.06896552  0.00000000       0.008
   0.00000000  0.05172414  0.00000000       0.008
   0.00000000  0.03448276  0.00000000       0.008
   0.00000000  0.01724138  0.00000000       0.008
   0.00000000  0.00000000  0.00000000       0.008
 
 position of ions in fractional coordinates (direct lattice) 
   0.87167320  0.24999997  0.49696590
   0.37165667  0.74999988  0.50304749
   0.12914495  0.24999997  0.49695077
   0.62918985  0.74999988  0.50305619
   0.72896920  0.24999997  0.47042888
   0.22894062  0.74999988  0.52960778
   0.27182373  0.24999997  0.47041435
   0.77183887  0.74999988  0.52961436
   0.50029225  0.24999997  0.49411734
   0.00031608  0.74999988  0.50586345
   0.80387361  0.74999988  0.42263091
   0.30384533  0.24999997  0.57739411
   0.60061650  0.24999997  0.42190022
   0.10057022  0.74999988  0.57811234
   0.19697738  0.74999988  0.42261492
   0.69697793  0.24999997  0.57740606
   0.40011209  0.24999997  0.42184253
   0.90013574  0.74999988  0.57815966
   0.00040155  0.24999997  0.43530342
   0.50040180  0.74999988  0.56466193
 
 position of ions in cartesian coordinates  (Angst):
  15.51898491  0.92934148 12.44182090
   6.61685404  2.78802434 12.59407680
   2.29925459  0.92934148 12.44144193
  11.20189060  2.78802434 12.59429466
  12.97832955  0.92934148 11.77745156
   4.07598407  2.78802434 13.25902862
   4.83946098  0.92934148 11.77708792
  13.74156715  2.78802434 13.25919327
   8.90703983  0.92934148 12.37050549
   0.00562730  2.78802434 12.66457597
  14.31190320  2.78802434 10.58080250
   5.40956301  0.92934148 14.45538639
  10.69318002  0.92934148 10.56250921
   1.79051943  2.78802434 14.47336749
   3.50692100  2.78802434 10.58040226
  12.40876744  0.92934148 14.45568557
   7.12346501  0.92934148 10.56106494
  16.02572282  2.78802434 14.47455230
   0.00714912  0.92934148 10.89806592
   8.90899020  2.78802434 14.13662908
 
 Euler angles ALPHA=     0.0000000  BETA=     0.0000000

 transformation matrix from SAXIS to cartesian coordinates
 ---------------------------------------------------------
     1.0000000 m_x     0.0000000 m_y     0.0000000 m_z
     0.0000000 m_x     1.0000000 m_y     0.0000000 m_z
     0.0000000 m_x     0.0000000 m_y     1.0000000 m_z

 transformation matrix from cartesian coordinates to SAXIS
 ---------------------------------------------------------
     1.0000000 m_x     0.0000000 m_y     0.0000000 m_z
     0.0000000 m_x     1.0000000 m_y     0.0000000 m_z
     0.0000000 m_x     0.0000000 m_y     1.0000000 m_z




--------------------------------------------------------------------------------------------------------


 k-point   1 :   0.0000 0.0000 0.0000  plane waves:   39806
 k-point   2 :   0.0172 0.0000 0.0000  plane waves:   39794
 k-point   3 :   0.0345 0.0000 0.0000  plane waves:   39794
 k-point   4 :   0.0517 0.0000 0.0000  plane waves:   39782
 k-point   5 :   0.0690 0.0000 0.0000  plane waves:   39774
 k-point   6 :   0.0862 0.0000 0.0000  plane waves:   39790
 k-point   7 :   0.1034 0.0000 0.0000  plane waves:   39782
 k-point   8 :   0.1207 0.0000 0.0000  plane waves:   39778
 k-point   9 :   0.1379 0.0000 0.0000  plane waves:   39778
 k-point  10 :   0.1552 0.0000 0.0000  plane waves:   39798
 k-point  11 :   0.1724 0.0000 0.0000  plane waves:   39782
 k-point  12 :   0.1897 0.0000 0.0000  plane waves:   39830
 k-point  13 :   0.2069 0.0000 0.0000  plane waves:   39830
 k-point  14 :   0.2241 0.0000 0.0000  plane waves:   39858
 k-point  15 :   0.2414 0.0000 0.0000  plane waves:   39854
 k-point  16 :   0.2586 0.0000 0.0000  plane waves:   39850
 k-point  17 :   0.2759 0.0000 0.0000  plane waves:   39834
 k-point  18 :   0.2931 0.0000 0.0000  plane waves:   39824
 k-point  19 :   0.3103 0.0000 0.0000  plane waves:   39832
 k-point  20 :   0.3276 0.0000 0.0000  plane waves:   39840
 k-point  21 :   0.3448 0.0000 0.0000  plane waves:   39848
 k-point  22 :   0.3621 0.0000 0.0000  plane waves:   39820
 k-point  23 :   0.3793 0.0000 0.0000  plane waves:   39812
 k-point  24 :   0.3966 0.0000 0.0000  plane waves:   39780
 k-point  25 :   0.4138 0.0000 0.0000  plane waves:   39764
 k-point  26 :   0.4310 0.0000 0.0000  plane waves:   39784
 k-point  27 :   0.4483 0.0000 0.0000  plane waves:   39800
 k-point  28 :   0.4655 0.0000 0.0000  plane waves:   39788
 k-point  29 :   0.4828 0.0000 0.0000  plane waves:   39784
 k-point  30 :   0.5000 0.0000 0.0000  plane waves:   39772
 k-point  31 :   0.5000 0.0000 0.0000  plane waves:   39772
 k-point  32 :   0.5000 0.0172 0.0000  plane waves:   39808
 k-point  33 :   0.5000 0.0345 0.0000  plane waves:   39780
 k-point  34 :   0.5000 0.0517 0.0000  plane waves:   39816
 k-point  35 :   0.5000 0.0690 0.0000  plane waves:   39812
 k-point  36 :   0.5000 0.0862 0.0000  plane waves:   39796
 k-point  37 :   0.5000 0.1034 0.0000  plane waves:   39724
 k-point  38 :   0.5000 0.1207 0.0000  plane waves:   39808
 k-point  39 :   0.5000 0.1379 0.0000  plane waves:   39800
 k-point  40 :   0.5000 0.1552 0.0000  plane waves:   39788
 k-point  41 :   0.5000 0.1724 0.0000  plane waves:   39784
 k-point  42 :   0.5000 0.1897 0.0000  plane waves:   39776
 k-point  43 :   0.5000 0.2069 0.0000  plane waves:   39708
 k-point  44 :   0.5000 0.2241 0.0000  plane waves:   39740
 k-point  45 :   0.5000 0.2414 0.0000  plane waves:   39716
 k-point  46 :   0.5000 0.2586 0.0000  plane waves:   39656
 k-point  47 :   0.5000 0.2759 0.0000  plane waves:   39644
 k-point  48 :   0.5000 0.2931 0.0000  plane waves:   39656
 k-point  49 :   0.5000 0.3103 0.0000  plane waves:   39680
 k-point  50 :   0.5000 0.3276 0.0000  plane waves:   39708
 k-point  51 :   0.5000 0.3448 0.0000  plane waves:   39684
 k-point  52 :   0.5000 0.3621 0.0000  plane waves:   39704
 k-point  53 :   0.5000 0.3793 0.0000  plane waves:   39664
 k-point  54 :   0.5000 0.3966 0.0000  plane waves:   39696
 k-point  55 :   0.5000 0.4138 0.0000  plane waves:   39652
 k-point  56 :   0.5000 0.4310 0.0000  plane waves:   39732
 k-point  57 :   0.5000 0.4483 0.0000  plane waves:   39724
 k-point  58 :   0.5000 0.4655 0.0000  plane waves:   39696
 k-point  59 :   0.5000 0.4828 0.0000  plane waves:   39736
 k-point  60 :   0.5000 0.5000 0.0000  plane waves:   39768
 k-point  61 :   0.5000 0.5000 0.0000  plane waves:   39768
 k-point  62 :   0.4828 0.5000 0.0000  plane waves:   39736
 k-point  63 :   0.4655 0.5000 0.0000  plane waves:   39744
 k-point  64 :   0.4483 0.5000 0.0000  plane waves:   39736
 k-point  65 :   0.4310 0.5000 0.0000  plane waves:   39728
 k-point  66 :   0.4138 0.5000 0.0000  plane waves:   39720
 k-point  67 :   0.3966 0.5000 0.0000  plane waves:   39760
 k-point  68 :   0.3793 0.5000 0.0000  plane waves:   39768
 k-point  69 :   0.3621 0.5000 0.0000  plane waves:   39768
 k-point  70 :   0.3448 0.5000 0.0000  plane waves:   39760
 k-point  71 :   0.3276 0.5000 0.0000  plane waves:   39744
 k-point  72 :   0.3103 0.5000 0.0000  plane waves:   39736
 k-point  73 :   0.2931 0.5000 0.0000  plane waves:   39712
 k-point  74 :   0.2759 0.5000 0.0000  plane waves:   39672
 k-point  75 :   0.2586 0.5000 0.0000  plane waves:   39692
 k-point  76 :   0.2414 0.5000 0.0000  plane waves:   39724
 k-point  77 :   0.2241 0.5000 0.0000  plane waves:   39744
 k-point  78 :   0.2069 0.5000 0.0000  plane waves:   39748
 k-point  79 :   0.1897 0.5000 0.0000  plane waves:   39732
 k-point  80 :   0.1724 0.5000 0.0000  plane waves:   39724
 k-point  81 :   0.1552 0.5000 0.0000  plane waves:   39736
 k-point  82 :   0.1379 0.5000 0.0000  plane waves:   39744
 k-point  83 :   0.1207 0.5000 0.0000  plane waves:   39792
 k-point  84 :   0.1034 0.5000 0.0000  plane waves:   39808
 k-point  85 :   0.0862 0.5000 0.0000  plane waves:   39816
 k-point  86 :   0.0690 0.5000 0.0000  plane waves:   39852
 k-point  87 :   0.0517 0.5000 0.0000  plane waves:   39852
 k-point  88 :   0.0345 0.5000 0.0000  plane waves:   39860
 k-point  89 :   0.0172 0.5000 0.0000  plane waves:   39844
 k-point  90 :   0.0000 0.5000 0.0000  plane waves:   39860
 k-point  91 :   0.0000 0.5000 0.0000  plane waves:   39860
 k-point  92 :   0.0000 0.4828 0.0000  plane waves:   39812
 k-point  93 :   0.0000 0.4655 0.0000  plane waves:   39812
 k-point  94 :   0.0000 0.4483 0.0000  plane waves:   39776
 k-point  95 :   0.0000 0.4310 0.0000  plane waves:   39748
 k-point  96 :   0.0000 0.4138 0.0000  plane waves:   39736
 k-point  97 :   0.0000 0.3966 0.0000  plane waves:   39736
 k-point  98 :   0.0000 0.3793 0.0000  plane waves:   39716
 k-point  99 :   0.0000 0.3621 0.0000  plane waves:   39716
 k-point 100 :   0.0000 0.3448 0.0000  plane waves:   39704
 k-point 101 :   0.0000 0.3276 0.0000  plane waves:   39692
 k-point 102 :   0.0000 0.3103 0.0000  plane waves:   39692
 k-point 103 :   0.0000 0.2931 0.0000  plane waves:   39652
 k-point 104 :   0.0000 0.2759 0.0000  plane waves:   39662
 k-point 105 :   0.0000 0.2586 0.0000  plane waves:   39678
 k-point 106 :   0.0000 0.2414 0.0000  plane waves:   39662
 k-point 107 :   0.0000 0.2241 0.0000  plane waves:   39738
 k-point 108 :   0.0000 0.2069 0.0000  plane waves:   39750
 k-point 109 :   0.0000 0.1897 0.0000  plane waves:   39718
 k-point 110 :   0.0000 0.1724 0.0000  plane waves:   39734
 k-point 111 :   0.0000 0.1552 0.0000  plane waves:   39730
 k-point 112 :   0.0000 0.1379 0.0000  plane waves:   39762
 k-point 113 :   0.0000 0.1207 0.0000  plane waves:   39774
 k-point 114 :   0.0000 0.1034 0.0000  plane waves:   39774
 k-point 115 :   0.0000 0.0862 0.0000  plane waves:   39750
 k-point 116 :   0.0000 0.0690 0.0000  plane waves:   39770
 k-point 117 :   0.0000 0.0517 0.0000  plane waves:   39786
 k-point 118 :   0.0000 0.0345 0.0000  plane waves:   39774
 k-point 119 :   0.0000 0.0172 0.0000  plane waves:   39794
 k-point 120 :   0.0000 0.0000 0.0000  plane waves:   39806

 maximum and minimum number of plane-waves per node :     10116     9710

 maximum number of plane-waves:     39860
 maximum index in each direction: 
   IXMAX=   25   IYMAX=    5   IZMAX=   35
   IXMIN=  -25   IYMIN=   -5   IZMIN=  -35


 real space projection operators:
  total allocation   :       9743.23 KBytes
  max/ min on nodes  :       2447.14       2424.45


 parallel 3D FFT for wavefunctions:
    minimum data exchange during FFTs selected (reduces bandwidth)
 parallel 3D FFT for charge:
    minimum data exchange during FFTs selected (reduces bandwidth)


 total amount of memory used by VASP MPI-rank0   794592. kBytes
=======================================================================

   base      :      30000. kBytes
   nonlr-proj:       5374. kBytes
   fftplans  :      30838. kBytes
   grid      :      36716. kBytes
   one-center:        311. kBytes
   wavefun   :     691353. kBytes
 
     INWAV:  cpu time      0.0001: real time      0.0001
 initial charge density was supplied:
 number of electron     140.0000003 magnetization      -0.0005440     -0.0005285     -0.0005526
 keeping initial charge density in first step


--------------------------------------------------------------------------------------------------------


 Maximum index for non-local projection operator         1716
 Maximum index for augmentation-charges         4456 (set IRDMAX)


--------------------------------------------------------------------------------------------------------


 First call to EWALD:  gamma=   0.150
 Maximum number of real-space cells 2x 8x 2
 Maximum number of reciprocal cells 4x 1x 5

    FEWALD:  cpu time      0.0048: real time      0.0048


--------------------------------------- Ionic step        1  -------------------------------------------




--------------------------------------- Iteration      1(   1)  ---------------------------------------


    POTLOK:  cpu time      0.9285: real time      1.0409
    SETDIJ:  cpu time      1.7452: real time      1.7495
     EDDAV:  cpu time    995.8396: real time    999.1796
       DOS:  cpu time      0.0235: real time      0.0235
    --------------------------------------------
      LOOP:  cpu time    998.5368: real time   1001.9935

 eigenvalue-minimisations  : 68568
 total energy-change (2. order) : 0.6329957E+03  (-0.3391142E+04)
 number of electron     140.0000003 magnetization      -0.0005440     -0.0005285     -0.0005526
 augmentation part      140.0000003 magnetization      -0.0005440     -0.0005285     -0.0005526

 Free energy of the ion-electron system (eV)
  ---------------------------------------------------
  alpha Z        PSCENC =        66.99798409
  Ewald energy   TEWEN  =     29846.57578200
  -Hartree energ DENC   =    -38448.36462582
  -exchange      EXHF   =         0.00000000
  -V(xc)+E(xc)   XCENC  =      -356.04818037
  PAW double counting   =     14554.18155611   -14285.03903732
  entropy T*S    EENTRO =        -0.00068194
  eigenvalues    EBANDS =        33.58202685
  atomic energy  EATOM  =      9221.11089956
  Solvation  Ediel_sol  =         0.00000000
  ---------------------------------------------------
  free energy    TOTEN  =       632.99572316 eV

  energy without entropy =      632.99640510  energy(sigma->0) =      632.99606413


--------------------------------------------------------------------------------------------------------




--------------------------------------- Iteration      1(   2)  ---------------------------------------


     EDDAV:  cpu time   1188.8680: real time   1192.6109
       DOS:  cpu time      0.0313: real time      0.0313
    --------------------------------------------
      LOOP:  cpu time   1188.8994: real time   1192.6422

 eigenvalue-minimisations  : 86488
 total energy-change (2. order) :-0.6755306E+03  (-0.6300166E+03)
 number of electron     140.0000003 magnetization      -0.0005440     -0.0005285     -0.0005526
 augmentation part      140.0000003 magnetization      -0.0005440     -0.0005285     -0.0005526

 Free energy of the ion-electron system (eV)
  ---------------------------------------------------
  alpha Z        PSCENC =        66.99798409
  Ewald energy   TEWEN  =     29846.57578200
  -Hartree energ DENC   =    -38448.36462582
  -exchange      EXHF   =         0.00000000
  -V(xc)+E(xc)   XCENC  =      -356.04818037
  PAW double counting   =     14554.18155611   -14285.03903732
  entropy T*S    EENTRO =        -0.00002773
  eigenvalues    EBANDS =      -641.94927545
  atomic energy  EATOM  =      9221.11089956
  Solvation  Ediel_sol  =         0.00000000
  ---------------------------------------------------
  free energy    TOTEN  =       -42.53492493 eV

  energy without entropy =      -42.53489719  energy(sigma->0) =      -42.53491106


--------------------------------------------------------------------------------------------------------




--------------------------------------- Iteration      1(   3)  ---------------------------------------


     EDDAV:  cpu time   1227.0603: real time   1230.8556
       DOS:  cpu time      0.0145: real time      0.0145
    --------------------------------------------
      LOOP:  cpu time   1227.0747: real time   1230.8701

 eigenvalue-minimisations  : 89976
 total energy-change (2. order) :-0.7449218E+02  (-0.7183557E+02)
 number of electron     140.0000003 magnetization      -0.0005440     -0.0005285     -0.0005526
 augmentation part      140.0000003 magnetization      -0.0005440     -0.0005285     -0.0005526

 Free energy of the ion-electron system (eV)
  ---------------------------------------------------
  alpha Z        PSCENC =        66.99798409
  Ewald energy   TEWEN  =     29846.57578200
  -Hartree energ DENC   =    -38448.36462582
  -exchange      EXHF   =         0.00000000
  -V(xc)+E(xc)   XCENC  =      -356.04818037
  PAW double counting   =     14554.18155611   -14285.03903732
  entropy T*S    EENTRO =        -0.00000000
  eigenvalues    EBANDS =      -716.44147900
  atomic energy  EATOM  =      9221.11089956
  Solvation  Ediel_sol  =         0.00000000
  ---------------------------------------------------
  free energy    TOTEN  =      -117.02710074 eV

  energy without entropy =     -117.02710074  energy(sigma->0) =     -117.02710074


--------------------------------------------------------------------------------------------------------




--------------------------------------- Iteration      1(   4)  ---------------------------------------


     EDDAV:  cpu time   1171.6201: real time   1175.2056
       DOS:  cpu time      0.0277: real time      0.0277
    --------------------------------------------
      LOOP:  cpu time   1171.6478: real time   1175.2333

 eigenvalue-minimisations  : 84976
 total energy-change (2. order) :-0.3237010E+01  (-0.3218794E+01)
 number of electron     140.0000003 magnetization      -0.0005440     -0.0005285     -0.0005526
 augmentation part      140.0000003 magnetization      -0.0005440     -0.0005285     -0.0005526

 Free energy of the ion-electron system (eV)
  ---------------------------------------------------
  alpha Z        PSCENC =        66.99798409
  Ewald energy   TEWEN  =     29846.57578200
  -Hartree energ DENC   =    -38448.36462582
  -exchange      EXHF   =         0.00000000
  -V(xc)+E(xc)   XCENC  =      -356.04818037
  PAW double counting   =     14554.18155611   -14285.03903732
  entropy T*S    EENTRO =        -0.00000000
  eigenvalues    EBANDS =      -719.67848917
  atomic energy  EATOM  =      9221.11089956
  Solvation  Ediel_sol  =         0.00000000
  ---------------------------------------------------
  free energy    TOTEN  =      -120.26411091 eV

  energy without entropy =     -120.26411091  energy(sigma->0) =     -120.26411091


--------------------------------------------------------------------------------------------------------




--------------------------------------- Iteration      1(   5)  ---------------------------------------


     EDDAV:  cpu time   1202.6601: real time   1206.5104
       DOS:  cpu time      0.0406: real time      0.0406



 total charge

# of ion       s       p       d       tot
------------------------------------------
    1        0.562   0.670   3.285   4.517
    2        0.562   0.670   3.286   4.517
    3        0.562   0.670   3.285   4.517
    4        0.562   0.670   3.286   4.517
    5        0.457   0.539   8.423   9.419
    6        0.457   0.539   8.422   9.418
    7        0.457   0.539   8.423   9.419
    8        0.457   0.539   8.423   9.419
    9        0.412   0.472   8.384   9.268
   10        0.412   0.472   8.384   9.268
   11        1.373   1.956   0.063   3.392
   12        1.373   1.955   0.063   3.392
   13        1.375   1.980   0.062   3.416
   14        1.375   1.979   0.062   3.416
   15        1.373   1.956   0.063   3.392
   16        1.373   1.955   0.063   3.392
   17        1.375   1.979   0.062   3.416
   18        1.375   1.979   0.062   3.416
   19        1.365   2.001   0.058   3.425
   20        1.365   2.001   0.058   3.424
--------------------------------------------------
tot         18.622  25.520  64.218 108.360



 magnetization (x)

# of ion       s       p       d       tot
------------------------------------------
    1        0.001  -0.001   0.006   0.006
    2       -0.001   0.001  -0.006  -0.006
    3        0.001  -0.001   0.006   0.006
    4       -0.001   0.001  -0.006  -0.007
    5       -0.001  -0.000   0.002   0.000
    6        0.001   0.000  -0.002   0.000
    7       -0.001  -0.000   0.002   0.000
    8        0.001   0.000  -0.002   0.000
    9        0.002  -0.000   0.004   0.006
   10       -0.002   0.000  -0.004  -0.006
   11       -0.000  -0.002  -0.000  -0.002
   12        0.000   0.002   0.000   0.002
   13       -0.000  -0.005  -0.000  -0.005
   14        0.000   0.005   0.000   0.005
   15       -0.000  -0.002  -0.000  -0.002
   16        0.000   0.002   0.000   0.002
   17       -0.000  -0.005  -0.000  -0.005
   18        0.000   0.005   0.000   0.005
   19       -0.000  -0.001   0.000  -0.001
   20        0.000   0.001  -0.000   0.001
--------------------------------------------------
tot          0.000   0.000   0.000   0.000



 magnetization (y)

# of ion       s       p       d       tot
------------------------------------------
    1       -0.000  -0.000   0.000   0.000
    2       -0.000   0.000  -0.000  -0.000
    3        0.000  -0.000   0.000   0.000
    4        0.000   0.000  -0.000  -0.000
    5       -0.000  -0.000   0.000   0.000
    6        0.000   0.000  -0.000   0.000
    7       -0.000  -0.000   0.000   0.000
    8        0.000   0.000  -0.000   0.000
    9       -0.000   0.000  -0.000  -0.000
   10        0.000  -0.000   0.000   0.000
   11       -0.000  -0.000   0.000  -0.000
   12        0.000   0.000  -0.000   0.000
   13       -0.000   0.000  -0.000   0.000
   14        0.000  -0.000   0.000  -0.000
   15       -0.000  -0.000   0.000  -0.000
   16        0.000   0.000  -0.000   0.000
   17       -0.000   0.000  -0.000   0.000
   18        0.000  -0.000   0.000  -0.000
   19        0.000   0.000   0.000   0.000
   20       -0.000  -0.000  -0.000  -0.000
--------------------------------------------------
tot         -0.000   0.000   0.000   0.000



 magnetization (z)

# of ion       s       p       d       tot
------------------------------------------
    1        0.000  -0.000   0.001   0.001
    2        0.000  -0.000   0.001   0.001
    3       -0.000   0.000  -0.001  -0.001
    4       -0.000   0.000  -0.001  -0.001
    5       -0.001  -0.000   0.001  -0.001
    6       -0.001  -0.000   0.001  -0.001
    7        0.001   0.000  -0.001   0.001
    8        0.001   0.000  -0.001   0.001
    9        0.000  -0.000  -0.000  -0.000
   10       -0.000   0.000  -0.000  -0.000
   11       -0.000   0.002   0.000   0.002
   12       -0.000   0.002   0.000   0.002
   13       -0.000   0.000   0.000   0.000
   14       -0.000   0.000   0.000   0.000
   15        0.000  -0.002  -0.000  -0.002
   16        0.000  -0.002  -0.000  -0.002
   17        0.000  -0.000  -0.000  -0.000
   18        0.000  -0.000  -0.000  -0.000
   19       -0.000  -0.000  -0.000  -0.000
   20        0.000  -0.000  -0.000  -0.000
--------------------------------------------------
tot         -0.000   0.000  -0.000  -0.000
 
    --------------------------------------------
      LOOP:  cpu time   1202.8703: real time   1206.7210

 eigenvalue-minimisations  : 87800
 total energy-change (2. order) :-0.8183913E-01  (-0.8180712E-01)
 number of electron     140.0000003 magnetization      -0.0005440     -0.0005285     -0.0005526
 augmentation part      140.0000003 magnetization      -0.0005440     -0.0005285     -0.0005526

 Free energy of the ion-electron system (eV)
  ---------------------------------------------------
  alpha Z        PSCENC =        66.99798409
  Ewald energy   TEWEN  =     29846.57578200
  -Hartree energ DENC   =    -38448.36462582
  -exchange      EXHF   =         0.00000000
  -V(xc)+E(xc)   XCENC  =      -356.04818037
  PAW double counting   =     14554.18155611   -14285.03903732
  entropy T*S    EENTRO =        -0.00000000
  eigenvalues    EBANDS =      -719.76032830
  atomic energy  EATOM  =      9221.11089956
  Solvation  Ediel_sol  =         0.00000000
  ---------------------------------------------------
  free energy    TOTEN  =      -120.34595005 eV

  energy without entropy =     -120.34595005  energy(sigma->0) =     -120.34595005


--------------------------------------------------------------------------------------------------------




--------------------------------------- Iteration      1(   6)  ---------------------------------------


     EDDAV:  cpu time   1261.8224: real time   1265.9180
       DOS:  cpu time      0.0236: real time      0.0236
    --------------------------------------------
      LOOP:  cpu time   1261.6762: real time   1265.7717

 eigenvalue-minimisations  : 93424
 total energy-change (2. order) :-0.2827453E-02  (-0.2827330E-02)
 number of electron     140.0000003 magnetization      -0.0005440     -0.0005285     -0.0005526
 augmentation part      140.0000003 magnetization      -0.0005440     -0.0005285     -0.0005526

 Free energy of the ion-electron system (eV)
  ---------------------------------------------------
  alpha Z        PSCENC =        66.99798409
  Ewald energy   TEWEN  =     29846.57578200
  -Hartree energ DENC   =    -38448.36462582
  -exchange      EXHF   =         0.00000000
  -V(xc)+E(xc)   XCENC  =      -356.04818037
  PAW double counting   =     14554.18155611   -14285.03903732
  entropy T*S    EENTRO =        -0.00000000
  eigenvalues    EBANDS =      -719.76315576
  atomic energy  EATOM  =      9221.11089956
  Solvation  Ediel_sol  =         0.00000000
  ---------------------------------------------------
  free energy    TOTEN  =      -120.34877750 eV

  energy without entropy =     -120.34877750  energy(sigma->0) =     -120.34877750


--------------------------------------------------------------------------------------------------------




--------------------------------------- Iteration      1(   7)  ---------------------------------------


     EDDAV:  cpu time   1275.4424: real time   1279.6844
       DOS:  cpu time      0.0199: real time      0.0199
    --------------------------------------------
      LOOP:  cpu time   1275.4623: real time   1279.7043

 eigenvalue-minimisations  : 94544
 total energy-change (2. order) :-0.1169480E-03  (-0.1169471E-03)
 number of electron     140.0000003 magnetization      -0.0005440     -0.0005285     -0.0005526
 augmentation part      140.0000003 magnetization      -0.0005440     -0.0005285     -0.0005526

 Free energy of the ion-electron system (eV)
  ---------------------------------------------------
  alpha Z        PSCENC =        66.99798409
  Ewald energy   TEWEN  =     29846.57578200
  -Hartree energ DENC   =    -38448.36462582
  -exchange      EXHF   =         0.00000000
  -V(xc)+E(xc)   XCENC  =      -356.04818037
  PAW double counting   =     14554.18155611   -14285.03903732
  entropy T*S    EENTRO =        -0.00000000
  eigenvalues    EBANDS =      -719.76327270
  atomic energy  EATOM  =      9221.11089956
  Solvation  Ediel_sol  =         0.00000000
  ---------------------------------------------------
  free energy    TOTEN  =      -120.34889445 eV

  energy without entropy =     -120.34889445  energy(sigma->0) =     -120.34889445


--------------------------------------------------------------------------------------------------------




--------------------------------------- Iteration      1(   8)  ---------------------------------------


     EDDAV:  cpu time   1278.4145: real time   1282.8120
       DOS:  cpu time      0.0265: real time      0.0266
    --------------------------------------------
      LOOP:  cpu time   1278.4410: real time   1282.8385

 eigenvalue-minimisations  : 95024
 total energy-change (2. order) :-0.4179639E-05  (-0.4179660E-05)
 number of electron     140.0000003 magnetization      -0.0005440     -0.0005285     -0.0005526
 augmentation part      140.0000003 magnetization      -0.0005440     -0.0005285     -0.0005526

 Free energy of the ion-electron system (eV)
  ---------------------------------------------------
  alpha Z        PSCENC =        66.99798409
  Ewald energy   TEWEN  =     29846.57578200
  -Hartree energ DENC   =    -38448.36462582
  -exchange      EXHF   =         0.00000000
  -V(xc)+E(xc)   XCENC  =      -356.04818037
  PAW double counting   =     14554.18155611   -14285.03903732
  entropy T*S    EENTRO =        -0.00000000
  eigenvalues    EBANDS =      -719.76327688
  atomic energy  EATOM  =      9221.11089956
  Solvation  Ediel_sol  =         0.00000000
  ---------------------------------------------------
  free energy    TOTEN  =      -120.34889863 eV

  energy without entropy =     -120.34889863  energy(sigma->0) =     -120.34889863


--------------------------------------------------------------------------------------------------------




--------------------------------------- Iteration      1(   9)  ---------------------------------------


     EDDAV:  cpu time    956.9150: real time    960.1497
       DOS:  cpu time      0.0404: real time      0.0404
    --------------------------------------------
      LOOP:  cpu time    956.9553: real time    960.1901

 eigenvalue-minimisations  : 64968
 total energy-change (2. order) :-0.1002318E-06  (-0.1001291E-06)
 number of electron     140.0000003 magnetization      -0.0005440     -0.0005285     -0.0005526
 augmentation part      140.0000003 magnetization      -0.0005440     -0.0005285     -0.0005526

 Free energy of the ion-electron system (eV)
  ---------------------------------------------------
  alpha Z        PSCENC =        66.99798409
  Ewald energy   TEWEN  =     29846.57578200
  -Hartree energ DENC   =    -38448.36462582
  -exchange      EXHF   =         0.00000000
  -V(xc)+E(xc)   XCENC  =      -356.04818037
  PAW double counting   =     14554.18155611   -14285.03903732
  entropy T*S    EENTRO =        -0.00000000
  eigenvalues    EBANDS =      -719.76327698
  atomic energy  EATOM  =      9221.11089956
  Solvation  Ediel_sol  =         0.00000000
  ---------------------------------------------------
  free energy    TOTEN  =      -120.34889873 eV

  energy without entropy =     -120.34889873  energy(sigma->0) =     -120.34889873


--------------------------------------------------------------------------------------------------------




--------------------------------------- Iteration      1(  10)  ---------------------------------------


     EDDAV:  cpu time    799.0970: real time    801.8450
       DOS:  cpu time      0.0156: real time      0.0156



 total charge

# of ion       s       p       d       tot
------------------------------------------
    1        0.560   0.670   3.287   4.517
    2        0.560   0.670   3.287   4.517
    3        0.560   0.670   3.287   4.516
    4        0.560   0.670   3.287   4.517
    5        0.456   0.539   8.422   9.417
    6        0.456   0.539   8.422   9.417
    7        0.456   0.539   8.422   9.417
    8        0.456   0.539   8.422   9.417
    9        0.411   0.472   8.384   9.267
   10        0.411   0.472   8.384   9.267
   11        1.371   1.955   0.063   3.389
   12        1.371   1.955   0.063   3.389
   13        1.373   1.979   0.062   3.413
   14        1.373   1.979   0.062   3.413
   15        1.371   1.955   0.063   3.389
   16        1.371   1.955   0.063   3.389
   17        1.373   1.979   0.062   3.413
   18        1.373   1.979   0.062   3.413
   19        1.363   2.000   0.058   3.422
   20        1.363   2.000   0.058   3.422
--------------------------------------------------
tot         18.586  25.513  64.221 108.320



 magnetization (x)

# of ion       s       p       d       tot
------------------------------------------
    1        0.001  -0.001   0.006   0.006
    2       -0.001   0.001  -0.006  -0.007
    3        0.001  -0.001   0.006   0.006
    4       -0.001   0.001  -0.006  -0.007
    5       -0.001  -0.000   0.002   0.000
    6        0.001   0.000  -0.002   0.000
    7       -0.001  -0.000   0.002   0.000
    8        0.001   0.000  -0.002   0.000
    9        0.002  -0.000   0.004   0.006
   10       -0.002   0.000  -0.004  -0.006
   11       -0.000  -0.002  -0.000  -0.002
   12        0.000   0.002   0.000   0.002
   13       -0.000  -0.005  -0.000  -0.005
   14        0.000   0.005   0.000   0.005
   15       -0.000  -0.002  -0.000  -0.002
   16        0.000   0.002   0.000   0.002
   17       -0.000  -0.005  -0.000  -0.005
   18        0.000   0.005   0.000   0.005
   19       -0.000  -0.001   0.000  -0.001
   20        0.000   0.001  -0.000   0.001
--------------------------------------------------
tot         -0.000   0.000   0.000   0.000



 magnetization (y)

# of ion       s       p       d       tot
------------------------------------------
    1        0.000  -0.000   0.000   0.000
    2       -0.000   0.000  -0.000  -0.000
    3        0.000  -0.000   0.000   0.000
    4       -0.000   0.000  -0.000  -0.000
    5       -0.000  -0.000   0.000   0.000
    6        0.000   0.000  -0.000   0.000
    7       -0.000  -0.000   0.000   0.000
    8        0.000   0.000  -0.000   0.000
    9       -0.000   0.000  -0.000  -0.001
   10        0.000  -0.000   0.000   0.000
   11       -0.000  -0.000   0.000  -0.000
   12        0.000   0.000  -0.000   0.000
   13       -0.000   0.000  -0.000   0.000
   14        0.000  -0.000   0.000  -0.000
   15       -0.000  -0.000   0.000  -0.000
   16        0.000   0.000  -0.000   0.000
   17       -0.000   0.000  -0.000   0.000
   18        0.000  -0.000   0.000  -0.000
   19        0.000   0.000   0.000   0.000
   20       -0.000  -0.000  -0.000  -0.000
--------------------------------------------------
tot         -0.000   0.000   0.000   0.000



 magnetization (z)

# of ion       s       p       d       tot
------------------------------------------
    1        0.000  -0.000   0.001   0.001
    2        0.000  -0.000   0.001   0.001
    3       -0.000   0.000  -0.001  -0.001
    4       -0.000   0.000  -0.001  -0.001
    5       -0.001  -0.000   0.001  -0.001
    6       -0.001  -0.000   0.001  -0.001
    7        0.001   0.000  -0.001   0.001
    8        0.001   0.000  -0.001   0.001
    9       -0.000  -0.000  -0.000  -0.000
   10       -0.000   0.000  -0.000  -0.000
   11       -0.000   0.002   0.000   0.002
[...]
    -0.0006285     0.0000000    -0.0005596
    -0.0007013    -0.0005596     0.0000000
 l=   2
     0.0000000    -0.0002272     0.0000000    -0.0001425    -0.0014020
    -0.0002272     0.0000000    -0.0011419     0.0002130    -0.0006511
     0.0000000    -0.0011419     0.0000000    -0.0007523     0.0000000
    -0.0001425     0.0002130    -0.0007523     0.0000000     0.0000013
    -0.0014020    -0.0006511     0.0000000     0.0000013     0.0000000
 l=   3
     0.0000000     0.0000000     0.0000000     0.0000000     0.0000000     0.0000000     0.0000000
     0.0000000     0.0000000     0.0000000     0.0000000     0.0000000     0.0000000     0.0000000
     0.0000000     0.0000000     0.0000000     0.0000000     0.0000000     0.0000000     0.0000000
     0.0000000     0.0000000     0.0000000     0.0000000     0.0000000     0.0000000     0.0000000
     0.0000000     0.0000000     0.0000000     0.0000000     0.0000000     0.0000000     0.0000000
     0.0000000     0.0000000     0.0000000     0.0000000     0.0000000     0.0000000     0.0000000
     0.0000000     0.0000000     0.0000000     0.0000000     0.0000000     0.0000000     0.0000000

 Ion:   10  E_soc:     -0.0119874
 l=   1
     0.0000000    -0.0006286    -0.0007017
    -0.0006286     0.0000000    -0.0005596
    -0.0007017    -0.0005596     0.0000000
 l=   2
     0.0000000    -0.0002278     0.0000000    -0.0001422    -0.0014026
    -0.0002278     0.0000000    -0.0011411     0.0002123    -0.0006509
     0.0000000    -0.0011411     0.0000000    -0.0007522     0.0000000
    -0.0001422     0.0002123    -0.0007522     0.0000000     0.0000007
    -0.0014026    -0.0006509     0.0000000     0.0000007     0.0000000
 l=   3
     0.0000000     0.0000000     0.0000000     0.0000000     0.0000000     0.0000000     0.0000000
     0.0000000     0.0000000     0.0000000     0.0000000     0.0000000     0.0000000     0.0000000
     0.0000000     0.0000000     0.0000000     0.0000000     0.0000000     0.0000000     0.0000000
     0.0000000     0.0000000     0.0000000     0.0000000     0.0000000     0.0000000     0.0000000
     0.0000000     0.0000000     0.0000000     0.0000000     0.0000000     0.0000000     0.0000000
     0.0000000     0.0000000     0.0000000     0.0000000     0.0000000     0.0000000     0.0000000
     0.0000000     0.0000000     0.0000000     0.0000000     0.0000000     0.0000000     0.0000000

 Ion:   11  E_soc:     -0.2061206
 l=   1
     0.0000000    -0.0346145    -0.0345948
    -0.0346145     0.0000000    -0.0334946
    -0.0345948    -0.0334946     0.0000000
 l=   2
     0.0000000    -0.0000150     0.0000000    -0.0000141    -0.0001091
    -0.0000150     0.0000000    -0.0000954     0.0000105    -0.0000475
     0.0000000    -0.0000954     0.0000000    -0.0000770     0.0000000
    -0.0000141     0.0000105    -0.0000770     0.0000000    -0.0000088
    -0.0001091    -0.0000475     0.0000000    -0.0000088     0.0000000
 l=   3
     0.0000000     0.0000000     0.0000000     0.0000000     0.0000000     0.0000000     0.0000000
     0.0000000     0.0000000     0.0000000     0.0000000     0.0000000     0.0000000     0.0000000
     0.0000000     0.0000000     0.0000000     0.0000000     0.0000000     0.0000000     0.0000000
     0.0000000     0.0000000     0.0000000     0.0000000     0.0000000     0.0000000     0.0000000
     0.0000000     0.0000000     0.0000000     0.0000000     0.0000000     0.0000000     0.0000000
     0.0000000     0.0000000     0.0000000     0.0000000     0.0000000     0.0000000     0.0000000
     0.0000000     0.0000000     0.0000000     0.0000000     0.0000000     0.0000000     0.0000000

 Ion:   12  E_soc:     -0.2061201
 l=   1
     0.0000000    -0.0346163    -0.0345945
    -0.0346163     0.0000000    -0.0334928
    -0.0345945    -0.0334928     0.0000000
 l=   2
     0.0000000    -0.0000150     0.0000000    -0.0000141    -0.0001091
    -0.0000150     0.0000000    -0.0000954     0.0000104    -0.0000475
     0.0000000    -0.0000954     0.0000000    -0.0000770     0.0000000
    -0.0000141     0.0000104    -0.0000770     0.0000000    -0.0000088
    -0.0001091    -0.0000475     0.0000000    -0.0000088     0.0000000
 l=   3
     0.0000000     0.0000000     0.0000000     0.0000000     0.0000000     0.0000000     0.0000000
     0.0000000     0.0000000     0.0000000     0.0000000     0.0000000     0.0000000     0.0000000
     0.0000000     0.0000000     0.0000000     0.0000000     0.0000000     0.0000000     0.0000000
     0.0000000     0.0000000     0.0000000     0.0000000     0.0000000     0.0000000     0.0000000
     0.0000000     0.0000000     0.0000000     0.0000000     0.0000000     0.0000000     0.0000000
     0.0000000     0.0000000     0.0000000     0.0000000     0.0000000     0.0000000     0.0000000
     0.0000000     0.0000000     0.0000000     0.0000000     0.0000000     0.0000000     0.0000000

 Ion:   13  E_soc:     -0.2049140
 l=   1
     0.0000000    -0.0347209    -0.0342524
    -0.0347209     0.0000000    -0.0332262
    -0.0342524    -0.0332262     0.0000000
 l=   2
     0.0000000    -0.0000083     0.0000000    -0.0000281    -0.0001264
    -0.0000083     0.0000000    -0.0000179     0.0000425    -0.0000113
     0.0000000    -0.0000179     0.0000000    -0.0000981     0.0000000
    -0.0000281     0.0000425    -0.0000981     0.0000000    -0.0000098
    -0.0001264    -0.0000113     0.0000000    -0.0000098     0.0000000
 l=   3
     0.0000000     0.0000000     0.0000000     0.0000000     0.0000000     0.0000000     0.0000000
     0.0000000     0.0000000     0.0000000     0.0000000     0.0000000     0.0000000     0.0000000
     0.0000000     0.0000000     0.0000000     0.0000000     0.0000000     0.0000000     0.0000000
     0.0000000     0.0000000     0.0000000     0.0000000     0.0000000     0.0000000     0.0000000
     0.0000000     0.0000000     0.0000000     0.0000000     0.0000000     0.0000000     0.0000000
     0.0000000     0.0000000     0.0000000     0.0000000     0.0000000     0.0000000     0.0000000
     0.0000000     0.0000000     0.0000000     0.0000000     0.0000000     0.0000000     0.0000000

 Ion:   14  E_soc:     -0.2049151
 l=   1
     0.0000000    -0.0347221    -0.0342522
    -0.0347221     0.0000000    -0.0332258
    -0.0342522    -0.0332258     0.0000000
 l=   2
     0.0000000    -0.0000083     0.0000000    -0.0000281    -0.0001263
    -0.0000083     0.0000000    -0.0000179     0.0000425    -0.0000113
     0.0000000    -0.0000179     0.0000000    -0.0000982     0.0000000
    -0.0000281     0.0000425    -0.0000982     0.0000000    -0.0000098
    -0.0001263    -0.0000113     0.0000000    -0.0000098     0.0000000
 l=   3
     0.0000000     0.0000000     0.0000000     0.0000000     0.0000000     0.0000000     0.0000000
     0.0000000     0.0000000     0.0000000     0.0000000     0.0000000     0.0000000     0.0000000
     0.0000000     0.0000000     0.0000000     0.0000000     0.0000000     0.0000000     0.0000000
     0.0000000     0.0000000     0.0000000     0.0000000     0.0000000     0.0000000     0.0000000
     0.0000000     0.0000000     0.0000000     0.0000000     0.0000000     0.0000000     0.0000000
     0.0000000     0.0000000     0.0000000     0.0000000     0.0000000     0.0000000     0.0000000
     0.0000000     0.0000000     0.0000000     0.0000000     0.0000000     0.0000000     0.0000000

 Ion:   15  E_soc:     -0.2061280
 l=   1
     0.0000000    -0.0346173    -0.0345972
    -0.0346173     0.0000000    -0.0334926
    -0.0345972    -0.0334926     0.0000000
 l=   2
     0.0000000    -0.0000151     0.0000000    -0.0000141    -0.0001092
    -0.0000151     0.0000000    -0.0000955     0.0000104    -0.0000476
     0.0000000    -0.0000955     0.0000000    -0.0000770     0.0000000
    -0.0000141     0.0000104    -0.0000770     0.0000000    -0.0000088
    -0.0001092    -0.0000476     0.0000000    -0.0000088     0.0000000
 l=   3
     0.0000000     0.0000000     0.0000000     0.0000000     0.0000000     0.0000000     0.0000000
     0.0000000     0.0000000     0.0000000     0.0000000     0.0000000     0.0000000     0.0000000
     0.0000000     0.0000000     0.0000000     0.0000000     0.0000000     0.0000000     0.0000000
     0.0000000     0.0000000     0.0000000     0.0000000     0.0000000     0.0000000     0.0000000
     0.0000000     0.0000000     0.0000000     0.0000000     0.0000000     0.0000000     0.0000000
     0.0000000     0.0000000     0.0000000     0.0000000     0.0000000     0.0000000     0.0000000
     0.0000000     0.0000000     0.0000000     0.0000000     0.0000000     0.0000000     0.0000000

 Ion:   16  E_soc:     -0.2061315
 l=   1
     0.0000000    -0.0346182    -0.0345980
    -0.0346182     0.0000000    -0.0334926
    -0.0345980    -0.0334926     0.0000000
 l=   2
     0.0000000    -0.0000151     0.0000000    -0.0000141    -0.0001093
    -0.0000151     0.0000000    -0.0000955     0.0000104    -0.0000476
     0.0000000    -0.0000955     0.0000000    -0.0000770     0.0000000
    -0.0000141     0.0000104    -0.0000770     0.0000000    -0.0000088
    -0.0001093    -0.0000476     0.0000000    -0.0000088     0.0000000
 l=   3
     0.0000000     0.0000000     0.0000000     0.0000000     0.0000000     0.0000000     0.0000000
     0.0000000     0.0000000     0.0000000     0.0000000     0.0000000     0.0000000     0.0000000
     0.0000000     0.0000000     0.0000000     0.0000000     0.0000000     0.0000000     0.0000000
     0.0000000     0.0000000     0.0000000     0.0000000     0.0000000     0.0000000     0.0000000
     0.0000000     0.0000000     0.0000000     0.0000000     0.0000000     0.0000000     0.0000000
     0.0000000     0.0000000     0.0000000     0.0000000     0.0000000     0.0000000     0.0000000
     0.0000000     0.0000000     0.0000000     0.0000000     0.0000000     0.0000000     0.0000000

 Ion:   17  E_soc:     -0.2049125
 l=   1
     0.0000000    -0.0347179    -0.0342582
    -0.0347179     0.0000000    -0.0332226
    -0.0342582    -0.0332226     0.0000000
 l=   2
     0.0000000    -0.0000083     0.0000000    -0.0000281    -0.0001262
    -0.0000083     0.0000000    -0.0000180     0.0000425    -0.0000113
     0.0000000    -0.0000180     0.0000000    -0.0000982     0.0000000
    -0.0000281     0.0000425    -0.0000982     0.0000000    -0.0000098
    -0.0001262    -0.0000113     0.0000000    -0.0000098     0.0000000
 l=   3
     0.0000000     0.0000000     0.0000000     0.0000000     0.0000000     0.0000000     0.0000000
     0.0000000     0.0000000     0.0000000     0.0000000     0.0000000     0.0000000     0.0000000
     0.0000000     0.0000000     0.0000000     0.0000000     0.0000000     0.0000000     0.0000000
     0.0000000     0.0000000     0.0000000     0.0000000     0.0000000     0.0000000     0.0000000
     0.0000000     0.0000000     0.0000000     0.0000000     0.0000000     0.0000000     0.0000000
     0.0000000     0.0000000     0.0000000     0.0000000     0.0000000     0.0000000     0.0000000
     0.0000000     0.0000000     0.0000000     0.0000000     0.0000000     0.0000000     0.0000000

 Ion:   18  E_soc:     -0.2049176
 l=   1
     0.0000000    -0.0347210    -0.0342570
    -0.0347210     0.0000000    -0.0332235
    -0.0342570    -0.0332235     0.0000000
 l=   2
     0.0000000    -0.0000083     0.0000000    -0.0000281    -0.0001262
    -0.0000083     0.0000000    -0.0000179     0.0000425    -0.0000113
     0.0000000    -0.0000179     0.0000000    -0.0000982     0.0000000
    -0.0000281     0.0000425    -0.0000982     0.0000000    -0.0000098
    -0.0001262    -0.0000113     0.0000000    -0.0000098     0.0000000
 l=   3
     0.0000000     0.0000000     0.0000000     0.0000000     0.0000000     0.0000000     0.0000000
     0.0000000     0.0000000     0.0000000     0.0000000     0.0000000     0.0000000     0.0000000
     0.0000000     0.0000000     0.0000000     0.0000000     0.0000000     0.0000000     0.0000000
     0.0000000     0.0000000     0.0000000     0.0000000     0.0000000     0.0000000     0.0000000
     0.0000000     0.0000000     0.0000000     0.0000000     0.0000000     0.0000000     0.0000000
     0.0000000     0.0000000     0.0000000     0.0000000     0.0000000     0.0000000     0.0000000
     0.0000000     0.0000000     0.0000000     0.0000000     0.0000000     0.0000000     0.0000000

 Ion:   19  E_soc:     -0.2051163
 l=   1
     0.0000000    -0.0332487    -0.0352279
    -0.0332487     0.0000000    -0.0339533
    -0.0352279    -0.0339533     0.0000000
 l=   2
     0.0000000    -0.0000335     0.0000000    -0.0000261    -0.0000272
    -0.0000335     0.0000000    -0.0000992     0.0000319    -0.0000098
     0.0000000    -0.0000992     0.0000000     0.0000024     0.0000000
    -0.0000261     0.0000319     0.0000024     0.0000000     0.0000332
    -0.0000272    -0.0000098     0.0000000     0.0000332     0.0000000
 l=   3
     0.0000000     0.0000000     0.0000000     0.0000000     0.0000000     0.0000000     0.0000000
     0.0000000     0.0000000     0.0000000     0.0000000     0.0000000     0.0000000     0.0000000
     0.0000000     0.0000000     0.0000000     0.0000000     0.0000000     0.0000000     0.0000000
     0.0000000     0.0000000     0.0000000     0.0000000     0.0000000     0.0000000     0.0000000
     0.0000000     0.0000000     0.0000000     0.0000000     0.0000000     0.0000000     0.0000000
     0.0000000     0.0000000     0.0000000     0.0000000     0.0000000     0.0000000     0.0000000
     0.0000000     0.0000000     0.0000000     0.0000000     0.0000000     0.0000000     0.0000000

 Ion:   20  E_soc:     -0.2050937
 l=   1
     0.0000000    -0.0332412    -0.0352239
    -0.0332412     0.0000000    -0.0339533
    -0.0352239    -0.0339533     0.0000000
 l=   2
     0.0000000    -0.0000335     0.0000000    -0.0000262    -0.0000272
    -0.0000335     0.0000000    -0.0000992     0.0000319    -0.0000099
     0.0000000    -0.0000992     0.0000000     0.0000024     0.0000000
    -0.0000262     0.0000319     0.0000024     0.0000000     0.0000332
    -0.0000272    -0.0000099     0.0000000     0.0000332     0.0000000
 l=   3
     0.0000000     0.0000000     0.0000000     0.0000000     0.0000000     0.0000000     0.0000000
     0.0000000     0.0000000     0.0000000     0.0000000     0.0000000     0.0000000     0.0000000
     0.0000000     0.0000000     0.0000000     0.0000000     0.0000000     0.0000000     0.0000000
     0.0000000     0.0000000     0.0000000     0.0000000     0.0000000     0.0000000     0.0000000
     0.0000000     0.0000000     0.0000000     0.0000000     0.0000000     0.0000000     0.0000000
     0.0000000     0.0000000     0.0000000     0.0000000     0.0000000     0.0000000     0.0000000
     0.0000000     0.0000000     0.0000000     0.0000000     0.0000000     0.0000000     0.0000000



 total charge

# of ion       s       p       d       tot
------------------------------------------
    1        0.560   0.670   3.287   4.517
    2        0.560   0.670   3.287   4.517
    3        0.560   0.670   3.287   4.516
    4        0.560   0.670   3.287   4.517
    5        0.456   0.539   8.422   9.417
    6        0.456   0.539   8.422   9.417
    7        0.456   0.539   8.422   9.417
    8        0.456   0.539   8.422   9.417
    9        0.411   0.472   8.384   9.267
   10        0.411   0.472   8.384   9.267
   11        1.371   1.955   0.063   3.389
   12        1.371   1.955   0.063   3.389
   13        1.373   1.979   0.062   3.413
   14        1.373   1.979   0.062   3.413
   15        1.371   1.955   0.063   3.389
   16        1.371   1.955   0.063   3.389
   17        1.373   1.979   0.062   3.413
   18        1.373   1.979   0.062   3.413
   19        1.363   2.000   0.058   3.422
   20        1.363   2.000   0.058   3.422
--------------------------------------------------
tot         18.586  25.513  64.221 108.320



 magnetization (x)

# of ion       s       p       d       tot
------------------------------------------
    1        0.001  -0.001   0.006   0.006
    2       -0.001   0.001  -0.006  -0.007
    3        0.001  -0.001   0.006   0.006
    4       -0.001   0.001  -0.006  -0.007
    5       -0.001  -0.000   0.002   0.000
    6        0.001   0.000  -0.002   0.000
    7       -0.001  -0.000   0.002   0.000
    8        0.001   0.000  -0.002   0.000
    9        0.002  -0.000   0.004   0.006
   10       -0.002   0.000  -0.004  -0.006
   11       -0.000  -0.002  -0.000  -0.002
   12        0.000   0.002   0.000   0.002
   13       -0.000  -0.005  -0.000  -0.005
   14        0.000   0.005   0.000   0.005
   15       -0.000  -0.002  -0.000  -0.002
   16        0.000   0.002   0.000   0.002
   17       -0.000  -0.005  -0.000  -0.005
   18        0.000   0.005   0.000   0.005
   19       -0.000  -0.001   0.000  -0.001
   20        0.000   0.001  -0.000   0.001
--------------------------------------------------
tot         -0.000   0.000   0.000   0.000



 magnetization (y)

# of ion       s       p       d       tot
------------------------------------------
    1        0.000  -0.000   0.000   0.000
    2       -0.000   0.000  -0.000  -0.000
    3        0.000  -0.000   0.000   0.000
    4       -0.000   0.000  -0.000  -0.000
    5       -0.000  -0.000   0.000   0.000
    6        0.000   0.000  -0.000   0.000
    7       -0.000  -0.000   0.000   0.000
    8        0.000   0.000  -0.000   0.000
    9       -0.000   0.000  -0.000  -0.001
   10        0.000  -0.000   0.000   0.000
   11       -0.000  -0.000   0.000  -0.000
   12        0.000   0.000  -0.000   0.000
   13       -0.000   0.000  -0.000   0.000
   14        0.000  -0.000   0.000  -0.000
   15       -0.000  -0.000   0.000  -0.000
   16        0.000   0.000  -0.000   0.000
   17       -0.000   0.000  -0.000   0.000
   18        0.000  -0.000   0.000  -0.000
   19        0.000   0.000   0.000   0.000
   20       -0.000  -0.000  -0.000  -0.000
--------------------------------------------------
tot         -0.000   0.000   0.000   0.000



 magnetization (z)

# of ion       s       p       d       tot
------------------------------------------
    1        0.000  -0.000   0.001   0.001
    2        0.000  -0.000   0.001   0.001
    3       -0.000   0.000  -0.001  -0.001
    4       -0.000   0.000  -0.001  -0.001
    5       -0.001  -0.000   0.001  -0.001
    6       -0.001  -0.000   0.001  -0.001
    7        0.001   0.000  -0.001   0.001
    8        0.001   0.000  -0.001   0.001
    9       -0.000  -0.000  -0.000  -0.000
   10       -0.000   0.000  -0.000  -0.000
   11       -0.000   0.002   0.000   0.002
   12       -0.000   0.002   0.000   0.002
   13       -0.000   0.000   0.000   0.000
   14       -0.000   0.000   0.000   0.000
   15        0.000  -0.002  -0.000  -0.002
   16        0.000  -0.002  -0.000  -0.002
   17        0.000  -0.000  -0.000  -0.000
   18        0.000  -0.000  -0.000  -0.000
   19       -0.000  -0.000   0.000  -0.000
   20       -0.000  -0.000  -0.000  -0.000
--------------------------------------------------
tot         -0.000   0.000  -0.000   0.000
 

 total amount of memory used by VASP MPI-rank0   794592. kBytes
=======================================================================

   base      :      30000. kBytes
   nonlr-proj:       5374. kBytes
   fftplans  :      30838. kBytes
   grid      :      36716. kBytes
   one-center:        311. kBytes
   wavefun   :     691353. kBytes
 
  
  
 General timing and accounting informations for this job:
 ========================================================
  
                  Total CPU time used (sec):    14334.246
                            User time (sec):    14217.279
                          System time (sec):      116.967
                         Elapsed time (sec):    14382.679
  
                   Maximum memory used (kb):     1160400.
                   Average memory used (kb):          N/A
  
                          Minor page faults:       316876
                          Major page faults:         4045
                 Voluntary context switches:         1345
