       N       E                     dE             d eps       ncg     rms          rms(c)
DAV:   1    -0.215219497533E+05   -0.21522E+05   -0.36453E+04  8496   0.433E+02
DAV:   2    -0.221904561816E+05   -0.66851E+03   -0.64199E+03 10208   0.139E+02
DAV:   3    -0.222575403572E+05   -0.67084E+02   -0.64972E+02 10120   0.465E+01
DAV:   4    -0.222602554877E+05   -0.27151E+01   -0.27099E+01 10232   0.868E+00
DAV:   5    -0.222603382114E+05   -0.82724E-01   -0.82671E-01 12272   0.159E+00
DAV:   6    -0.222603407735E+05   -0.25621E-02   -0.25588E-02 12088   0.241E-01
DAV:   7    -0.222603408294E+05   -0.55863E-04   -0.53277E-04 12320   0.375E-02
DAV:   8    -0.222603408309E+05   -0.15041E-05   -0.13773E-05 11048   0.528E-03
DAV:   9    -0.222603408310E+05   -0.82775E-07   -0.37790E-07  8288   0.103E-03
DAV:  10    -0.222603408310E+05   -0.80217E-08   -0.41270E-08  6728   0.536E-04
DAV:  11    -0.222603408310E+05   -0.22847E-08   -0.15928E-08  6240   0.412E-04
DAV:  12    -0.146941937943E+03    0.22113E+05   -0.88566E+01  9040   0.349E+01    0.996E+01
DAV:  13    -0.146808729943E+03    0.13321E+00   -0.86334E+00 11864   0.171E+01    0.657E+01
DAV:  14    -0.145529717503E+03    0.12790E+01   -0.22854E+00 10984   0.372E+00    0.542E+01
DAV:  15    -0.143959750769E+03    0.15700E+01   -0.12495E+00 11080   0.597E+00    0.457E+01
DAV:  16    -0.143242010926E+03    0.71774E+00   -0.82582E-01 11312   0.395E+00    0.393E+01
DAV:  17    -0.142805296997E+03    0.43671E+00   -0.27284E-01  8944   0.128E+00    0.348E+01
DAV:  18    -0.142505250970E+03    0.30005E+00   -0.11706E-01 10432   0.809E-01    0.309E+01
DAV:  19    -0.142320264334E+03    0.18499E+00   -0.94649E-02  9592   0.682E-01    0.273E+01
DAV:  20    -0.142195306181E+03    0.12496E+00   -0.42834E-02  9768   0.610E-01    0.242E+01
DAV:  21    -0.142108813870E+03    0.86492E-01   -0.25326E-02  9544   0.486E-01    0.216E+01
DAV:  22    -0.142047959393E+03    0.60854E-01   -0.14553E-02  9480   0.312E-01    0.193E+01
DAV:  23    -0.142004061330E+03    0.43898E-01   -0.87584E-03  9288   0.208E-01    0.172E+01
DAV:  24    -0.141971968520E+03    0.32093E-01   -0.56050E-03  9560   0.166E-01    0.154E+01
DAV:  25    -0.141948188345E+03    0.23780E-01   -0.36576E-03  9496   0.142E-01    0.138E+01
DAV:  26    -0.141930387804E+03    0.17801E-01   -0.24566E-03  9544   0.120E-01    0.124E+01
DAV:  27    -0.141916944524E+03    0.13443E-01   -0.16881E-03  9544   0.968E-02    0.111E+01
DAV:  28    -0.141906731619E+03    0.10213E-01   -0.11749E-03  9704   0.785E-02    0.996E+00
DAV:  29    -0.141898940504E+03    0.77911E-02   -0.82907E-04  9704   0.654E-02    0.894E+00
DAV:  30    -0.141892968288E+03    0.59722E-02   -0.59381E-04  9864   0.557E-02    0.803E+00
DAV:  31    -0.141888370039E+03    0.45982E-02   -0.43043E-04  9848   0.477E-02    0.721E+00
DAV:  32    -0.141884824602E+03    0.35454E-02   -0.31502E-04  9976   0.410E-02    0.648E+00
DAV:  33    -0.141882095722E+03    0.27289E-02   -0.23182E-04 10112   0.353E-02    0.582E+00
DAV:  34    -0.141879978312E+03    0.21174E-02   -0.17205E-04  9984   0.305E-02    0.524E+00
DAV:  35    -0.141878341616E+03    0.16367E-02   -0.12826E-04 10112   0.265E-02    0.471E+00
DAV:  36    -0.141877070236E+03    0.12714E-02   -0.96141E-05 10024   0.229E-02    0.423E+00
DAV:  37    -0.141876086769E+03    0.98347E-03   -0.72106E-05 10112   0.198E-02    0.381E+00
DAV:  38    -0.141875320494E+03    0.76627E-03   -0.54410E-05  9784   0.172E-02    0.343E+00
DAV:  39    -0.141874728235E+03    0.59226E-03   -0.41215E-05 10040   0.149E-02    0.308E+00
DAV:  40    -0.141874267206E+03    0.46103E-03   -0.31041E-05  9672   0.128E-02    0.277E+00
DAV:  41    -0.141873912617E+03    0.35459E-03   -0.23594E-05  9896   0.111E-02    0.250E+00
DAV:  42    -0.141873636758E+03    0.27586E-03   -0.17990E-05  9880   0.966E-03    0.225E+00
DAV:  43    -0.141873422534E+03    0.21422E-03   -0.13711E-05  9672   0.838E-03    0.202E+00
DAV:  44    -0.141873256784E+03    0.16575E-03   -0.10502E-05  9656   0.729E-03    0.182E+00
DAV:  45    -0.141873130625E+03    0.12616E-03   -0.79820E-06  9504   0.635E-03    0.164E+00
DAV:  46    -0.141873033480E+03    0.97145E-04   -0.61216E-06  9584   0.553E-03    0.148E+00
DAV:  47    -0.141872959102E+03    0.74378E-04   -0.46888E-06  9120   0.484E-03    0.133E+00
DAV:  48    -0.141872902586E+03    0.56515E-04   -0.36033E-06  9280   0.423E-03    0.120E+00
DAV:  49    -0.141872859158E+03    0.43429E-04   -0.27623E-06  8592   0.370E-03    0.108E+00
DAV:  50    -0.141872827330E+03    0.31828E-04   -0.21653E-06  8448   0.324E-03    0.970E-01
DAV:  51    -0.141872803548E+03    0.23782E-04   -0.17118E-06  7112   0.284E-03    0.873E-01
DAV:  52    -0.141872785730E+03    0.17817E-04   -0.13644E-06  6112   0.250E-03    0.786E-01
DAV:  53    -0.141872772959E+03    0.12771E-04   -0.11388E-06  5928   0.224E-03    0.707E-01
DAV:  54    -0.141872763758E+03    0.92016E-05   -0.83738E-07  5152   0.195E-03    0.637E-01
DAV:  55    -0.141872757697E+03    0.60603E-05   -0.68388E-07  4992   0.180E-03    0.573E-01
DAV:  56    -0.141872753677E+03    0.40205E-05   -0.54649E-07  4824   0.162E-03    0.516E-01
DAV:  57    -0.141872751466E+03    0.22103E-05   -0.46228E-07  4736   0.151E-03    0.465E-01
DAV:  58    -0.141872750291E+03    0.11756E-05   -0.38281E-07  4608   0.136E-03    0.419E-01
DAV:  59    -0.141872750077E+03    0.21413E-06   -0.32186E-07  4544   0.127E-03
   1 F= -.14187275E+03 E0= -.14187275E+03  d E =-.276280E-12
