 vasp.6.4.2 20Jul23 (build Nov 14 2023 12:59:38) complex                        
  
 executed on             LinuxIFC date 2024.06.27  20:31:27
 running   32 mpi-ranks, on    1 nodes
 distrk:  each k-point on    8 cores,    4 groups
 distr:  one band on NCORE=   1 cores,    8 groups


--------------------------------------------------------------------------------------------------------


 INCAR:
   ENCUT = 303.223
   ALGO = Normal
   NELM = 200
   NELMIN = 6
   NELMDL = -12
   EDIFF = 1.0E-6
   AMIX = 0.1
   BMIX = 0.0001
   NBANDS = 160
   PREC = Accurate
   IVDW = 0
   ISPIN = 1
   ADDGRID = .TRUE.
   LASPH = .TRUE.
   LREAL = Auto
   LHFCALC = .TRUE.
   AEXX = 0.250
   HFSCREEN = 0.207
   NSW = 0
   EDIFFG = -0.010
   IBRION = 2
   ISIF = 3
   POTIM = 0.5
   STRESSTYPE = 2
   ISMEAR = 0
   SIGMA = 0.01
   LORBIT = 10
   NEDOS = 6001
   NWRITE = 1
   LWAVE = .FALSE.
   LCHARG = .TRUE.
   KPAR = 4
   LPLANE = .TRUE.
   LWANNIER90 = .TRUE.
   NUM_WANN = 160
   WANNIER90_WIN = \"\
\
Begin Projections\
random\
Ta:  p,d\
Ni:  p,d\
Te:  s,p\
End Projections\
\
use_ws_distance\=.false.\
\
\
spinors \= false\
\
num_iter \= 2000\
\
kmesh_tol \= 0.000001\
\#search_shells \= 500\
\
guiding_centres \= true\
\
\!postproc_setup \= T\
\
\!restart \= plot\
\
 write_hr \= T\
\
bands_plot \= T \! do a band structure calculation at the end\
	\
begin kpoint_path \! along the following path\
G  0.0000000000     0.0000000000     0.0000000000  X  0.5000000000     0.0000000000     0.0000000000\
X  0.5000000000     0.0000000000     0.0000000000  R  0.5000000000     0.5000000000     0.0000000000\
R  0.5000000000     0.5000000000     0.0000000000  Y  0.0000000000     0.5000000000     0.0000000000\
Y  0.0000000000     0.5000000000     0.0000000000  G  0.0000000000     0.0000000000     0.0000000000\
end kpoint_path\
\"

 POTCAR:    PAW_PBE Ta 17Jan2003                  
 POTCAR:    PAW_PBE Ni 02Aug2007                  
 POTCAR:    PAW_PBE Te 08Apr2002                  
 -----------------------------------------------------------------------------
|                                                                             |
|           W    W    AA    RRRRR   N    N  II  N    N   GGGG   !!!           |
|           W    W   A  A   R    R  NN   N  II  NN   N  G    G  !!!           |
|           W    W  A    A  R    R  N N  N  II  N N  N  G       !!!           |
|           W WW W  AAAAAA  RRRRR   N  N N  II  N  N N  G  GGG   !            |
|           WW  WW  A    A  R   R   N   NN  II  N   NN  G    G                |
|           W    W  A    A  R    R  N    N  II  N    N   GGGG   !!!           |
|                                                                             |
|     For optimal performance we recommend to set                             |
|       NCORE = 2 up to number-of-cores-per-socket                            |
|     NCORE specifies how many cores store one orbital (NPAR=cpu/NCORE).      |
|     This setting can greatly improve the performance of VASP for DFT.       |
|     The default, NCORE=1 might be grossly inefficient on modern             |
|     multi-core architectures or massively parallel machines. Do your        |
|     own testing! More info at https://www.vasp.at/wiki/index.php/NCORE      |
|     Unfortunately you need to use the default for GW and RPA                |
|     calculations (for HF NCORE is supported but not extensively tested      |
|     yet).                                                                   |
|                                                                             |
 -----------------------------------------------------------------------------

 POTCAR:    PAW_PBE Ta 17Jan2003                  
  local pseudopotential read in
  partial core-charges read in
  partial kinetic energy density read in
  atomic valenz-charges read in
  non local Contribution for L=           2  read in
    real space projection operators read in
  non local Contribution for L=           2  read in
    real space projection operators read in
  non local Contribution for L=           0  read in
    real space projection operators read in
  non local Contribution for L=           0  read in
    real space projection operators read in
  non local Contribution for L=           1  read in
    real space projection operators read in
  non local Contribution for L=           1  read in
    real space projection operators read in
    PAW grid and wavefunctions read in
 
   number of l-projection  operators is LMAX  =           6
   number of lm-projection operators is LMMAX =          18
 
 POTCAR:    PAW_PBE Ni 02Aug2007                  
  local pseudopotential read in
  partial core-charges read in
  partial kinetic energy density read in
  atomic valenz-charges read in
  non local Contribution for L=           2  read in
    real space projection operators read in
  non local Contribution for L=           2  read in
    real space projection operators read in
  non local Contribution for L=           0  read in
    real space projection operators read in
  non local Contribution for L=           0  read in
    real space projection operators read in
  non local Contribution for L=           1  read in
    real space projection operators read in
  non local Contribution for L=           1  read in
    real space projection operators read in
    PAW grid and wavefunctions read in
 
   number of l-projection  operators is LMAX  =           6
   number of lm-projection operators is LMMAX =          18
 
 POTCAR:    PAW_PBE Te 08Apr2002                  
  local pseudopotential read in
  partial core-charges read in
  partial kinetic energy density read in
  atomic valenz-charges read in
  non local Contribution for L=           0  read in
    real space projection operators read in
  non local Contribution for L=           0  read in
    real space projection operators read in
  non local Contribution for L=           1  read in
    real space projection operators read in
  non local Contribution for L=           1  read in
    real space projection operators read in
  non local Contribution for L=           2  read in
    real space projection operators read in
    PAW grid and wavefunctions read in
 
   number of l-projection  operators is LMAX  =           5
   number of lm-projection operators is LMMAX =          13
 
 Optimization of the real space projectors (new method)

 maximal supplied QI-value         = 12.85
 optimisation between [QCUT,QGAM] = [  8.87, 17.73] = [ 22.01, 88.06] Ry 
 Optimized for a Real-space Cutoff    1.95 Angstroem

   l    n(q)    QCUT    max X(q) W(low)/X(q) W(high)/X(q)  e(spline) 
   2      9     8.867    62.315    0.12E-03    0.33E-04    0.12E-05
   2      9     8.867    52.185    0.13E-03    0.33E-04    0.12E-05
   0     10     8.867   103.837    0.13E-04    0.28E-04    0.12E-06
   0     10     8.867    59.728    0.12E-04    0.25E-04    0.11E-06
   1     10     8.867    13.958    0.44E-04    0.17E-05    0.15E-06
   1     10     8.867     8.441    0.31E-04    0.26E-05    0.11E-06
 Optimization of the real space projectors (new method)

 maximal supplied QI-value         = 16.25
 optimisation between [QCUT,QGAM] = [  8.78, 17.71] = [ 21.57, 87.87] Ry 
 Optimized for a Real-space Cutoff    1.54 Angstroem

   l    n(q)    QCUT    max X(q) W(low)/X(q) W(high)/X(q)  e(spline) 
   2      7     8.776    60.317    0.16E-03    0.44E-03    0.23E-06
   2      7     8.776    55.921    0.17E-03    0.44E-03    0.23E-06
   0      8     8.776    51.690    0.22E-03    0.25E-03    0.51E-07
   0      8     8.776    30.015    0.20E-03    0.23E-03    0.47E-07
   1      8     8.776    18.849    0.17E-03    0.19E-03    0.10E-06
   1      8     8.776    14.624    0.15E-03    0.15E-03    0.88E-07
 Optimization of the real space projectors (new method)

 maximal supplied QI-value         = 16.25
 optimisation between [QCUT,QGAM] = [  8.78, 17.71] = [ 21.57, 87.87] Ry 
 Optimized for a Real-space Cutoff    1.49 Angstroem

   l    n(q)    QCUT    max X(q) W(low)/X(q) W(high)/X(q)  e(spline) 
   0      8     8.776   224.858    0.15E-03    0.19E-04    0.75E-07
   0      8     8.776   205.313    0.15E-03    0.20E-04    0.76E-07
   1      7     8.776   119.695    0.23E-03    0.47E-03    0.95E-07
   1      7     8.776    84.282    0.23E-03    0.46E-03    0.93E-07
   2      7     8.776     5.599    0.87E-04    0.38E-04    0.37E-07
  PAW_PBE Ta 17Jan2003                  :
 energy of atom  1       EATOM= -130.6506
 kinetic energy error for atom=    0.0116 (will be added to EATOM!!)
  PAW_PBE Ni 02Aug2007                  :
 energy of atom  2       EATOM=-1077.6739
 kinetic energy error for atom=    0.0306 (will be added to EATOM!!)
  PAW_PBE Te 08Apr2002                  :
 energy of atom  3       EATOM= -223.2721
 kinetic energy error for atom=    0.0026 (will be added to EATOM!!)
 
 
 POSCAR: Ta8 Ni12 Te20
  positions in direct lattice
  velocities in cartesian coordinates
 exchange correlation table for  LEXCH =        8
   RHO(1)=    0.500       N(1)  =     2000
   RHO(2)=  100.500       N(2)  =     4000
 


--------------------------------------------------------------------------------------------------------


 ion  position               nearest neighbor table
   1  0.872  0.250  0.497-   5 2.63   8 2.70   8 2.70  19 2.76  18 2.80  18 2.80  11 2.89  11 2.89
                            10 2.96  10 2.96
   2  0.372  0.750  0.503-   6 2.63   7 2.70   7 2.70  20 2.76  17 2.80  17 2.80  12 2.89  12 2.89
                             9 2.96   9 2.96
   3  0.129  0.250  0.497-   7 2.63   6 2.70   6 2.70  19 2.76  14 2.80  14 2.80  15 2.89  15 2.89
                            10 2.96  10 2.96
   4  0.629  0.750  0.503-   8 2.63   5 2.70   5 2.70  20 2.76  13 2.80  13 2.80  16 2.89  16 2.89
                             9 2.96   9 2.96
   5  0.729  0.250  0.470-   8 2.50   8 2.50  11 2.58  11 2.58  13 2.59   1 2.63   4 2.70   4 2.70
                            16 2.74
   6  0.229  0.750  0.530-   7 2.50   7 2.50  12 2.58  12 2.58  14 2.59   2 2.63   3 2.70   3 2.70
                            15 2.74
   7  0.272  0.250  0.470-   6 2.50   6 2.50  15 2.58  15 2.58  17 2.59   3 2.63   2 2.70   2 2.70
                            12 2.74
   8  0.772  0.750  0.530-   5 2.50   5 2.50  16 2.58  16 2.58  18 2.59   4 2.63   1 2.70   1 2.70
                            11 2.74
   9  0.500  0.250  0.494-  17 2.54  13 2.54  20 2.56  20 2.56   2 2.96   2 2.96   4 2.96   4 2.96

  10  0.000  0.750  0.506-  18 2.54  14 2.54  19 2.56  19 2.56   1 2.96   1 2.96   3 2.96   3 2.96

  11  0.804  0.750  0.423-   5 2.58   5 2.58   8 2.74   1 2.89   1 2.89
  12  0.304  0.250  0.577-   6 2.58   6 2.58   7 2.74   2 2.89   2 2.89
  13  0.601  0.250  0.422-   9 2.54   5 2.59   4 2.80   4 2.80  17 3.57
  14  0.101  0.750  0.578-  10 2.54   6 2.59   3 2.80   3 2.80  18 3.57
  15  0.197  0.750  0.423-   7 2.58   7 2.58   6 2.74   3 2.89   3 2.89
  16  0.697  0.250  0.577-   8 2.58   8 2.58   5 2.74   4 2.89   4 2.89
  17  0.400  0.250  0.422-   9 2.54   7 2.59   2 2.80   2 2.80  13 3.57
  18  0.900  0.750  0.578-  10 2.54   8 2.59   1 2.80   1 2.80  14 3.57
  19  0.000  0.250  0.435-  10 2.56  10 2.56   1 2.76   3 2.76
  20  0.500  0.750  0.565-   9 2.56   9 2.56   2 2.76   4 2.76
 
  LATTYP: Found a simple orthorhombic cell.
 ALAT       =     3.7173663731
 B/A-ratio  =     4.7893243875
 C/A-ratio  =     6.7347578740
  
  Lattice vectors:
  
 A1 = (   0.0000000000,  -3.7173663731,   0.0000000000)
 A2 = (  17.8036734280,   0.0000000000,   0.0000000000)
 A3 = (   0.0000000000,   0.0000000000,  25.0355624519)


Analysis of symmetry for initial positions (statically):
=====================================================================
 Subroutine PRICEL returns:
 Original cell was already a primitive cell.
 

 Routine SETGRP: Setting up the symmetry group for a 
 simple orthorhombic supercell.


 Subroutine GETGRP returns: Found  2 space group operations
 (whereof  1 operations were pure point group operations)
 out of a pool of  8 trial point group operations.


The static configuration has the point symmetry C_1 .
 The point group associated with its full space group is C_1h.


Analysis of symmetry for dynamics (positions and initial velocities):
=====================================================================
 Subroutine PRICEL returns:
 Original cell was already a primitive cell.
 

 Routine SETGRP: Setting up the symmetry group for a 
 simple orthorhombic supercell.


 Subroutine GETGRP returns: Found  2 space group operations
 (whereof  1 operations were pure point group operations)
 out of a pool of  8 trial point group operations.


The dynamic configuration has the point symmetry C_1 .
 The point group associated with its full space group is C_1h.


 Subroutine INISYM returns: Found  2 space group operations
 (whereof  1 operations are pure point group operations),
 and found     1 'primitive' translations


----------------------------------------------------------------------------------------

                                     Primitive cell                                     

  volume of cell :    1656.9230

  direct lattice vectors                    reciprocal lattice vectors
    17.803673428  0.000000000  0.000000000     0.056168184  0.000000000  0.000000000
     0.000000000  3.717366373  0.000000000     0.000000000  0.269007652 -0.000000000
     0.000000000  0.000000000 25.035562452     0.000000000  0.000000000  0.039943181

  length of vectors
    17.803673428  3.717366373 25.035562452     0.056168184  0.269007652  0.039943181

  position of ions in fractional coordinates (direct lattice)
     0.871673196  0.249999970  0.496965903
     0.371656673  0.749999881  0.503047488
     0.129144954  0.249999970  0.496950766
     0.629189849  0.749999881  0.503056190
     0.728969198  0.249999970  0.470428878
     0.228940622  0.749999881  0.529607779
     0.271823733  0.249999970  0.470414353
     0.771838868  0.749999881  0.529614355
     0.500292249  0.249999970  0.494117339
     0.000316075  0.749999881  0.505863449
     0.803873609  0.749999881  0.422630908
     0.303845329  0.249999970  0.577394114
     0.600616500  0.249999970  0.421900216
     0.100570225  0.749999881  0.578112336
     0.196977383  0.749999881  0.422614921
     0.696977929  0.249999970  0.577406064
     0.400112091  0.249999970  0.421842527
     0.900135743  0.749999881  0.578159661
     0.000401553  0.249999970  0.435303419
     0.500401798  0.749999881  0.564661933

  ion indices of the primitive-cell ions
   primitive index   ion index
                 1           1
                 2           2
                 3           3
                 4           4
                 5           5
                 6           6
                 7           7
                 8           8
                 9           9
                10          10
                11          11
                12          12
                13          13
                14          14
                15          15
                16          16
                17          17
                18          18
                19          19
                20          20

----------------------------------------------------------------------------------------

 
 
 KPOINTS: Gamma centered                          

Automatic generation of k-mesh.
 Grid dimensions read from file:
 generate k-points for:    6   11    1

 Generating k-lattice:

  Cartesian coordinates                     Fractional coordinates (reciprocal lattice)
     0.009361364  0.000000000  0.000000000     0.166666667  0.000000000  0.000000000
     0.000000000  0.024455241 -0.000000000     0.000000000  0.090909091  0.000000000
     0.000000000  0.000000000  0.039943181     0.000000000  0.000000000  1.000000000

  Length of vectors
     0.009361364  0.024455241  0.039943181

  Shift w.r.t. Gamma in fractional coordinates (k-lattice)
     0.000000000  0.000000000  0.000000000

 
 Subroutine IBZKPT returns following result:
 ===========================================
 
 Found     24 irreducible k-points:
 
 Following reciprocal coordinates:
            Coordinates               Weight
  0.000000  0.000000  0.000000      1.000000
  0.166667  0.000000  0.000000      2.000000
  0.333333  0.000000  0.000000      2.000000
  0.500000  0.000000  0.000000      1.000000
  0.000000  0.090909 -0.000000      2.000000
  0.166667  0.090909 -0.000000      4.000000
  0.333333  0.090909 -0.000000      4.000000
  0.500000  0.090909 -0.000000      2.000000
  0.000000  0.181818  0.000000      2.000000
  0.166667  0.181818  0.000000      4.000000
  0.333333  0.181818  0.000000      4.000000
  0.500000  0.181818  0.000000      2.000000
  0.000000  0.272727  0.000000      2.000000
  0.166667  0.272727  0.000000      4.000000
  0.333333  0.272727  0.000000      4.000000
  0.500000  0.272727  0.000000      2.000000
  0.000000  0.363636 -0.000000      2.000000
  0.166667  0.363636 -0.000000      4.000000
  0.333333  0.363636 -0.000000      4.000000
  0.500000  0.363636 -0.000000      2.000000
  0.000000  0.454545 -0.000000      2.000000
  0.166667  0.454545 -0.000000      4.000000
  0.333333  0.454545 -0.000000      4.000000
  0.500000  0.454545 -0.000000      2.000000
 
 Following cartesian coordinates:
            Coordinates               Weight
  0.000000  0.000000  0.000000      1.000000
  0.009361  0.000000  0.000000      2.000000
  0.018723  0.000000  0.000000      2.000000
  0.028084  0.000000  0.000000      1.000000
  0.000000  0.024455 -0.000000      2.000000
  0.009361  0.024455 -0.000000      4.000000
  0.018723  0.024455 -0.000000      4.000000
  0.028084  0.024455 -0.000000      2.000000
  0.000000  0.048910 -0.000000      2.000000
  0.009361  0.048910 -0.000000      4.000000
  0.018723  0.048910 -0.000000      4.000000
  0.028084  0.048910 -0.000000      2.000000
  0.000000  0.073366 -0.000000      2.000000
  0.009361  0.073366 -0.000000      4.000000
  0.018723  0.073366 -0.000000      4.000000
  0.028084  0.073366 -0.000000      2.000000
  0.000000  0.097821 -0.000000      2.000000
  0.009361  0.097821 -0.000000      4.000000
  0.018723  0.097821 -0.000000      4.000000
  0.028084  0.097821 -0.000000      2.000000
  0.000000  0.122276 -0.000000      2.000000
  0.009361  0.122276 -0.000000      4.000000
  0.018723  0.122276 -0.000000      4.000000
  0.028084  0.122276 -0.000000      2.000000
 
 
 Subroutine IBZKPT_HF returns following result:
 ==============================================
 
 Found     66 k-points in 1st BZ
 the following     66 k-points will be used (e.g. in the exchange kernel)
 Following reciprocal coordinates:   # in IRBZ
  0.000000  0.000000  0.000000    0.01515152   1 t-inv F
  0.166667  0.000000  0.000000    0.01515152   2 t-inv F
  0.333333  0.000000  0.000000    0.01515152   3 t-inv F
  0.500000  0.000000  0.000000    0.01515152   4 t-inv F
  0.000000  0.090909 -0.000000    0.01515152   5 t-inv F
  0.166667  0.090909 -0.000000    0.01515152   6 t-inv F
  0.333333  0.090909 -0.000000    0.01515152   7 t-inv F
  0.500000  0.090909 -0.000000    0.01515152   8 t-inv F
  0.000000  0.181818  0.000000    0.01515152   9 t-inv F
  0.166667  0.181818  0.000000    0.01515152  10 t-inv F
  0.333333  0.181818  0.000000    0.01515152  11 t-inv F
  0.500000  0.181818  0.000000    0.01515152  12 t-inv F
  0.000000  0.272727  0.000000    0.01515152  13 t-inv F
  0.166667  0.272727  0.000000    0.01515152  14 t-inv F
  0.333333  0.272727  0.000000    0.01515152  15 t-inv F
  0.500000  0.272727  0.000000    0.01515152  16 t-inv F
  0.000000  0.363636 -0.000000    0.01515152  17 t-inv F
  0.166667  0.363636 -0.000000    0.01515152  18 t-inv F
  0.333333  0.363636 -0.000000    0.01515152  19 t-inv F
  0.500000  0.363636 -0.000000    0.01515152  20 t-inv F
  0.000000  0.454545 -0.000000    0.01515152  21 t-inv F
  0.166667  0.454545 -0.000000    0.01515152  22 t-inv F
  0.333333  0.454545 -0.000000    0.01515152  23 t-inv F
  0.500000  0.454545 -0.000000    0.01515152  24 t-inv F
  0.000000 -0.090909 -0.000000    0.01515152   5 t-inv F
  0.166667 -0.090909 -0.000000    0.01515152   6 t-inv F
  0.333333 -0.090909 -0.000000    0.01515152   7 t-inv F
  0.500000 -0.090909 -0.000000    0.01515152   8 t-inv F
  0.000000 -0.181818  0.000000    0.01515152   9 t-inv F
  0.166667 -0.181818  0.000000    0.01515152  10 t-inv F
  0.333333 -0.181818  0.000000    0.01515152  11 t-inv F
  0.500000 -0.181818  0.000000    0.01515152  12 t-inv F
  0.000000 -0.272727  0.000000    0.01515152  13 t-inv F
  0.166667 -0.272727  0.000000    0.01515152  14 t-inv F
  0.333333 -0.272727  0.000000    0.01515152  15 t-inv F
  0.500000 -0.272727  0.000000    0.01515152  16 t-inv F
  0.000000 -0.363636 -0.000000    0.01515152  17 t-inv F
  0.166667 -0.363636 -0.000000    0.01515152  18 t-inv F
  0.333333 -0.363636 -0.000000    0.01515152  19 t-inv F
  0.500000 -0.363636 -0.000000    0.01515152  20 t-inv F
  0.000000 -0.454545 -0.000000    0.01515152  21 t-inv F
  0.166667 -0.454545 -0.000000    0.01515152  22 t-inv F
  0.333333 -0.454545 -0.000000    0.01515152  23 t-inv F
  0.500000 -0.454545 -0.000000    0.01515152  24 t-inv F
 -0.166667  0.000000  0.000000    0.01515152   2 t-inv T
 -0.333333  0.000000  0.000000    0.01515152   3 t-inv T
 -0.166667 -0.090909  0.000000    0.01515152   6 t-inv T
 -0.166667  0.090909  0.000000    0.01515152   6 t-inv T
 -0.333333 -0.090909  0.000000    0.01515152   7 t-inv T
 -0.333333  0.090909  0.000000    0.01515152   7 t-inv T
 -0.166667 -0.181818 -0.000000    0.01515152  10 t-inv T
 -0.166667  0.181818 -0.000000    0.01515152  10 t-inv T
 -0.333333 -0.181818 -0.000000    0.01515152  11 t-inv T
 -0.333333  0.181818 -0.000000    0.01515152  11 t-inv T
 -0.166667 -0.272727 -0.000000    0.01515152  14 t-inv T
 -0.166667  0.272727 -0.000000    0.01515152  14 t-inv T
 -0.333333 -0.272727 -0.000000    0.01515152  15 t-inv T
 -0.333333  0.272727 -0.000000    0.01515152  15 t-inv T
 -0.166667 -0.363636  0.000000    0.01515152  18 t-inv T
 -0.166667  0.363636  0.000000    0.01515152  18 t-inv T
 -0.333333 -0.363636  0.000000    0.01515152  19 t-inv T
 -0.333333  0.363636  0.000000    0.01515152  19 t-inv T
 -0.166667 -0.454545  0.000000    0.01515152  22 t-inv T
 -0.166667  0.454545  0.000000    0.01515152  22 t-inv T
 -0.333333 -0.454545  0.000000    0.01515152  23 t-inv T
 -0.333333  0.454545  0.000000    0.01515152  23 t-inv T


--------------------------------------------------------------------------------------------------------




 Dimension of arrays:
   k-points           NKPTS =     24   k-points in BZ     NKDIM =     66   number of bands    NBANDS=    160
   number of dos      NEDOS =   6001   number of ions     NIONS =     20
   non local maximal  LDIM  =      6   non local SUM 2l+1 LMDIM =     18
   total plane-waves  NPLWV = 373248
   max r-space proj   IRMAX =   7047   max aug-charges    IRDMAX= 122858
   dimension x,y,z NGX =   108 NGY =   24 NGZ =  144
   dimension x,y,z NGXF=   216 NGYF=   48 NGZF=  288
   support grid    NGXF=   432 NGYF=   96 NGZF=  576
   ions per type =               4   6  10
   NGX,Y,Z   is equivalent  to a cutoff of  10.08, 10.73,  9.56 a.u.
   NGXF,Y,Z  is equivalent  to a cutoff of  20.17, 21.47, 19.12 a.u.

 SYSTEM =  unknown system                          
 POSCAR =  Ta8 Ni12 Te20                           

 Startparameter for this run:
   NWRITE =      1    write-flag & timer
   PREC   = accura    normal or accurate (medium, high low for compatibility)
   ISTART =      0    job   : 0-new  1-cont  2-samecut
   ICHARG =      2    charge: 1-file 2-atom 10-const
   ISPIN  =      1    spin polarized calculation?
   LNONCOLLINEAR =      F non collinear calculations
   LSORBIT =      F    spin-orbit coupling
   INIWAV =      1    electr: 0-lowe 1-rand  2-diag
   LASPH  =      T    aspherical Exc in radial PAW
 Electronic Relaxation 1
   ENCUT  =  303.2 eV  22.29 Ry    4.72 a.u.  25.28  5.28 35.55*2*pi/ulx,y,z
   ENINI  =  303.2     initial cutoff
   ENAUG  =  544.6 eV  augmentation charge cutoff
   NELM   =    200;   NELMIN=  6; NELMDL=-12     # of ELM steps 
   EDIFF  = 0.1E-05   stopping-criterion for ELM
   LREAL  =      T    real-space projection
   NLSPLINE    = F    spline interpolate recip. space projectors
   LCOMPAT=      F    compatible to vasp.4.4
   GGA_COMPAT  = T    GGA compatible to vasp.4.4-vasp.4.6
   LMAXPAW     = -100 max onsite density
   LMAXMIX     =    2 max onsite mixed and CHGCAR
   VOSKOWN=      0    Vosko Wilk Nusair interpolation
   ROPT   =   -0.00025  -0.00025  -0.00025
 Ionic relaxation
   EDIFFG = -.1E-01   stopping-criterion for IOM
   NSW    =      0    number of steps for IOM
   NBLOCK =      1;   KBLOCK =      1    inner block; outer block 
   IBRION =     -1    ionic relax: 0-MD 1-quasi-New 2-CG
   NFREE  =      1    steps in history (QN), initial steepest desc. (CG)
   ISIF   =      3    stress and relaxation
   IWAVPR =     10    prediction:  0-non 1-charg 2-wave 3-comb
   ISYM   =      3    0-nonsym 1-usesym 2-fastsym
   LCORR  =      T    Harris-Foulkes like correction to forces

   POTIM  = 0.5000    time-step for ionic-motion
   TEIN   =    0.0    initial temperature
   TEBEG  =    0.0;   TEEND  =   0.0 temperature during run
   SMASS  =  -3.00    Nose mass-parameter (am)
   estimated Nose-frequenzy (Omega)   =  0.10E-29 period in steps = 0.13E+47 mass=  -0.724E-26a.u.
   SCALEE = 1.0000    scale energy and forces
   NPACO  =    256;   APACO  = 10.0  distance and # of slots for P.C.
   PSTRESS=    0.0 pullay stress

  Mass of Ions in am
   POMASS = 180.95 58.69127.60
  Ionic Valenz
   ZVAL   =   5.00 10.00  6.00
  Atomic Wigner-Seitz radii
   RWIGS  =  -1.00 -1.00 -1.00
  virtual crystal weights 
   VCA    =   1.00  1.00  1.00
   NELECT =     140.0000    total number of electrons
   NUPDOWN=      -1.0000    fix difference up-down

 DOS related values:
   EMIN   =  10.00;   EMAX   =-10.00  energy-range for DOS
   EFERMI =   0.00;   METHOD = LEGACY      
   ISMEAR =     0;   SIGMA  =   0.01  broadening in eV -4-tet -1-fermi 0-gaus

 Electronic relaxation 2 (details)
   IALGO  =     38    algorithm
   LDIAG  =      T    sub-space diagonalisation (order eigenvalues)
   LSUBROT=      F    optimize rotation matrix (better conditioning)
   TURBO    =      0    0=normal 1=particle mesh
   IRESTART =      0    0=no restart 2=restart with 2 vectors
   NREBOOT  =      0    no. of reboots
   NMIN     =      0    reboot dimension
   EREF     =   0.00    reference energy to select bands
   IMIX   =      1    mixing-type and parameters
     AMIX     =   0.10;   BMIX     =  0.00
     AMIX_MAG =   0.40;   BMIX_MAG =  0.00
     AMIN     =   0.10
     WC   =   100.;   INIMIX=   1;  MIXPRE=   1;  MAXMIX= -45

 Intra band minimization:
   WEIMIN = 0.0000     energy-eigenvalue tresh-hold
   EBREAK =  0.16E-08  absolut break condition
   DEPER  =   0.30     relativ break condition  

   TIME   =   0.40     timestep for ELM

  volume/ion in A,a.u.               =      82.85       559.07
  Fermi-wavevector in a.u.,A,eV,Ry     =   0.718373  1.357528  7.021421  0.516060
  Thomas-Fermi vector in A             =   1.807294
 
 Write flags
   LWAVE        =      F    write WAVECAR
   LDOWNSAMPLE  =      F    k-point downsampling of WAVECAR
   LCHARG       =      T    write CHGCAR
   LVTOT        =      F    write LOCPOT, total local potential
   LVHAR        =      F    write LOCPOT, Hartree potential only
   LELF         =      F    write electronic localiz. function (ELF)
   LORBIT       =     10    0 simple, 1 ext, 2 COOP (PROOUT), +10 PAW based schemes


 Dipole corrections
   LMONO  =      F    monopole corrections only (constant potential shift)
   LDIPOL =      F    correct potential (dipole corrections)
   IDIPOL =      0    1-x, 2-y, 3-z, 4-all directions 
   EPSILON=  1.0000000 bulk dielectric constant

 Exchange correlation treatment:
   GGA     =    --    GGA type
   LEXCH   =     8    internal setting for exchange type
   LIBXC   =     F    Libxc                    
   VOSKOWN =     0    Vosko Wilk Nusair interpolation
   EXXOEP  =     0    0=HF, 1=EXX-LHF (local Hartree Fock) 2=EXX OEP
   LHFCALC =     T    Hartree Fock is set to
   LSYMGRAD=     F    symmetrize gradient (conserves proper symmetry)
   PRECFOCK=normal    Normal, Fast or Accurate (Low or Medium for compatibility)
   LRHFCALC=     F    long range Hartree Fock
   LRSCOR  =     F    long range correlation only (use DFT for short range part)
   LTHOMAS =     F    Thomas Fermi screening in HF
   LMODELHF=     F    short range full HF, long range fraction AEXX
   FOCKCORR=     1    mode to apply convergence corrections
   LFOCKACE=     T    use Adeptively-Compressed-Exchange operator
   ENCUT4O =  -1.0   cutoff for four orbital integrals eV
   LMAXFOCK=     4    L truncation for augmentation on plane wave grid
   LMAXFOCKAE=  -1    L truncation for all-electron charge restoration on plane wave grid
   NMAXFOCKAE=   1    number of basis functions for all-electron charge restoration
   LFOCKAEDFT=     F  apply the AE augmentation even for DFT
   NKREDX  =     1    reduce k-point grid by
   NKREDY  =     1    reduce k-point grid by
   NKREDZ  =     1    reduce k-point grid by
   SHIFTRED=     F    shift reduced grid of Gamma
   HFKIDENT=     F    idential grid for each k-point
   ODDONLY =     F    use only odd q-grid points
   EVENONLY=     F    use only even q-grid points
   HFALPHA =   -1.0000 decay constant for conv. correction
   MCALPHA =    0.0000 extent of test-charge in conv. correction in multipole expansion
   AEXX    =    0.2500 exact exchange contribution
   HFSCREEN=    0.2070 screening length (either q_TF or 0.3 A-1)
   HFSCREENC=   0.2070 screening length for correlation (either q_TF or 0.3 A-1)
   HFRCUT  =    0.0000 spherical cutoff for potential kernel
   ALDAX   =    0.7500 LDA exchange part
   AGGAX   =    0.7500 GGA exchange part
   ALDAC   =    1.0000 LDA correlation
   AGGAC   =    1.0000 GGA correlation
   ENCUTFOCK=  -1.0 apply spherical cutoff to Coloumb kernel
   NBANDSGWLOW=     1    first orbital included in HF term
   NBLOCK_FOCK=    64    blocking factor in FOCK_ACC

 Linear response parameters
   LEPSILON=     F    determine dielectric tensor
   LRPA    =     F    only Hartree local field effects (RPA)
   LNABLA  =     F    use nabla operator in PAW spheres
   LVEL    =     F    velocity operator in full k-point grid
   CSHIFT  =0.1000    complex shift for real part using Kramers Kronig
   OMEGAMAX=  -1.0    maximum frequency
   DEG_THRESHOLD= 0.2000000E-02 threshold for treating states as degnerate
   RTIME   =   -0.100 relaxation time in fs
  (WPLASMAI=    0.000 imaginary part of plasma frequency in eV, 0.658/RTIME)
   DFIELD  = 0.0000000 0.0000000 0.0000000 field for delta impulse in time
 
  Optional k-point grid parameters
   LKPOINTS_OPT  =     F    use optional k-point grid
   KPOINTS_OPT_MODE=     1    mode for optional k-point grid
 
 Orbital magnetization related:
   ORBITALMAG=     F  switch on orbital magnetization
   LCHIMAG   =     F  perturbation theory with respect to B field
   DQ        =  0.001000  dq finite difference perturbation B field
   LLRAUG    =     F  two centre corrections for induced B field
   LBONE     =     F  B-component reconstruction in AE one-centre
   LVGVCALC  =     T  calculate vGv susceptibility
   LVGVAPPL  =     F  apply vGv susceptibility instead of pGv for G=0

 Random number generation:
   RANDOM_GENERATOR = DEFAULT
   PCG_SEED         = not used


--------------------------------------------------------------------------------------------------------


 Static calculation
 charge density and potential will be updated during run
 non-spin polarized calculation
 Variant of blocked Davidson
 Davidson routine will perform the subspace rotation
 perform sub-space diagonalisation
    after iterative eigenvector-optimisation
 Kerker-like  mixing scheme
 using additional bands           90
 real space projection scheme for non local part
 use partial core corrections
 calculate Harris-corrections to forces 
   (improved forces if not selfconsistent)
 use gradient corrections 
 use of overlap-Matrix (Vanderbilt PP)
 Gauss-broadening in eV      SIGMA  =   0.01


--------------------------------------------------------------------------------------------------------


  energy-cutoff  :      303.22
  volume of cell :     1656.92
      direct lattice vectors                 reciprocal lattice vectors
    17.803673428  0.000000000  0.000000000     0.056168184  0.000000000  0.000000000
     0.000000000  3.717366373  0.000000000     0.000000000  0.269007652 -0.000000000
     0.000000000  0.000000000 25.035562452     0.000000000  0.000000000  0.039943181

  length of vectors
    17.803673428  3.717366373 25.035562452     0.056168184  0.269007652  0.039943181


 
 k-points in units of 2pi/SCALE and weight: Gamma centered                          
   0.00000000  0.00000000  0.00000000       0.015
   0.00936136  0.00000000  0.00000000       0.030
   0.01872273  0.00000000  0.00000000       0.030
   0.02808409  0.00000000  0.00000000       0.015
   0.00000000  0.02445524 -0.00000000       0.030
   0.00936136  0.02445524 -0.00000000       0.061
   0.01872273  0.02445524 -0.00000000       0.061
   0.02808409  0.02445524 -0.00000000       0.030
   0.00000000  0.04891048 -0.00000000       0.030
   0.00936136  0.04891048 -0.00000000       0.061
   0.01872273  0.04891048 -0.00000000       0.061
   0.02808409  0.04891048 -0.00000000       0.030
   0.00000000  0.07336572 -0.00000000       0.030
   0.00936136  0.07336572 -0.00000000       0.061
   0.01872273  0.07336572 -0.00000000       0.061
   0.02808409  0.07336572 -0.00000000       0.030
   0.00000000  0.09782096 -0.00000000       0.030
   0.00936136  0.09782096 -0.00000000       0.061
   0.01872273  0.09782096 -0.00000000       0.061
   0.02808409  0.09782096 -0.00000000       0.030
   0.00000000  0.12227621 -0.00000000       0.030
   0.00936136  0.12227621 -0.00000000       0.061
   0.01872273  0.12227621 -0.00000000       0.061
   0.02808409  0.12227621 -0.00000000       0.030
 
 k-points in reciprocal lattice and weights: Gamma centered                          
   0.00000000  0.00000000  0.00000000       0.015
   0.16666667  0.00000000  0.00000000       0.030
   0.33333333  0.00000000  0.00000000       0.030
   0.50000000  0.00000000  0.00000000       0.015
   0.00000000  0.09090909 -0.00000000       0.030
   0.16666667  0.09090909 -0.00000000       0.061
   0.33333333  0.09090909 -0.00000000       0.061
   0.50000000  0.09090909 -0.00000000       0.030
   0.00000000  0.18181818  0.00000000       0.030
   0.16666667  0.18181818  0.00000000       0.061
   0.33333333  0.18181818  0.00000000       0.061
   0.50000000  0.18181818  0.00000000       0.030
   0.00000000  0.27272727  0.00000000       0.030
   0.16666667  0.27272727  0.00000000       0.061
   0.33333333  0.27272727  0.00000000       0.061
   0.50000000  0.27272727  0.00000000       0.030
   0.00000000  0.36363636 -0.00000000       0.030
   0.16666667  0.36363636 -0.00000000       0.061
   0.33333333  0.36363636 -0.00000000       0.061
   0.50000000  0.36363636 -0.00000000       0.030
   0.00000000  0.45454545 -0.00000000       0.030
   0.16666667  0.45454545 -0.00000000       0.061
   0.33333333  0.45454545 -0.00000000       0.061
   0.50000000  0.45454545 -0.00000000       0.030
 
 position of ions in fractional coordinates (direct lattice) 
   0.87167320  0.24999997  0.49696590
   0.37165667  0.74999988  0.50304749
   0.12914495  0.24999997  0.49695077
   0.62918985  0.74999988  0.50305619
   0.72896920  0.24999997  0.47042888
   0.22894062  0.74999988  0.52960778
   0.27182373  0.24999997  0.47041435
   0.77183887  0.74999988  0.52961436
   0.50029225  0.24999997  0.49411734
   0.00031608  0.74999988  0.50586345
   0.80387361  0.74999988  0.42263091
   0.30384533  0.24999997  0.57739411
   0.60061650  0.24999997  0.42190022
   0.10057022  0.74999988  0.57811234
   0.19697738  0.74999988  0.42261492
   0.69697793  0.24999997  0.57740606
   0.40011209  0.24999997  0.42184253
   0.90013574  0.74999988  0.57815966
   0.00040155  0.24999997  0.43530342
   0.50040180  0.74999988  0.56466193
 
 position of ions in cartesian coordinates  (Angst):
  15.51898491  0.92934148 12.44182090
   6.61685404  2.78802434 12.59407680
   2.29925459  0.92934148 12.44144193
  11.20189060  2.78802434 12.59429466
  12.97832955  0.92934148 11.77745156
   4.07598407  2.78802434 13.25902862
   4.83946098  0.92934148 11.77708792
  13.74156715  2.78802434 13.25919327
   8.90703983  0.92934148 12.37050549
   0.00562730  2.78802434 12.66457597
  14.31190320  2.78802434 10.58080250
   5.40956301  0.92934148 14.45538639
  10.69318002  0.92934148 10.56250921
   1.79051943  2.78802434 14.47336749
   3.50692100  2.78802434 10.58040226
  12.40876744  0.92934148 14.45568557
   7.12346501  0.92934148 10.56106494
  16.02572282  2.78802434 14.47455230
   0.00714912  0.92934148 10.89806592
   8.90899020  2.78802434 14.13662908
 


--------------------------------------------------------------------------------------------------------


 k-point   1 :   0.0000 0.0000 0.0000  plane waves:   19903
 k-point   2 :   0.1667 0.0000 0.0000  plane waves:   19895
 k-point   3 :   0.3333 0.0000 0.0000  plane waves:   19920
 k-point   4 :   0.5000 0.0000 0.0000  plane waves:   19886
 k-point   5 :   0.0000 0.0909-0.0000  plane waves:   19885
 k-point   6 :   0.1667 0.0909-0.0000  plane waves:   19911
 k-point   7 :   0.3333 0.0909-0.0000  plane waves:   19880
 k-point   8 :   0.5000 0.0909-0.0000  plane waves:   19888
 k-point   9 :   0.0000 0.1818 0.0000  plane waves:   19875
 k-point  10 :   0.1667 0.1818 0.0000  plane waves:   19885
 k-point  11 :   0.3333 0.1818 0.0000  plane waves:   19872
 k-point  12 :   0.5000 0.1818 0.0000  plane waves:   19892
 k-point  13 :   0.0000 0.2727 0.0000  plane waves:   19837
 k-point  14 :   0.1667 0.2727 0.0000  plane waves:   19840
 k-point  15 :   0.3333 0.2727 0.0000  plane waves:   19818
 k-point  16 :   0.5000 0.2727 0.0000  plane waves:   19834
 k-point  17 :   0.0000 0.3636-0.0000  plane waves:   19852
 k-point  18 :   0.1667 0.3636-0.0000  plane waves:   19856
 k-point  19 :   0.3333 0.3636-0.0000  plane waves:   19835
 k-point  20 :   0.5000 0.3636-0.0000  plane waves:   19844
 k-point  21 :   0.0000 0.4545-0.0000  plane waves:   19902
 k-point  22 :   0.1667 0.4545-0.0000  plane waves:   19866
 k-point  23 :   0.3333 0.4545-0.0000  plane waves:   19870
 k-point  24 :   0.5000 0.4545-0.0000  plane waves:   19862

 maximum and minimum number of plane-waves per node :     19920    19818

 maximum number of plane-waves:     19920
 maximum index in each direction: 
   IXMAX=   25   IYMAX=    5   IZMAX=   35
   IXMIN=  -25   IYMIN=   -5   IZMIN=  -35


 serial   3D FFT for wavefunctions
 parallel 3D FFT for charge:
    minimum data exchange during FFTs selected (reduces bandwidth)


 FFT grid for exact exchange (Hartree Fock) 
  NGX = 80; NGY = 16; NGZ =108

 
 Radii for the augmentation spheres in the non-local exchange
 for species   1 augmentation radius   1.567 (default was   1.254)
       energy cutoff for augmentation   1212.9
 for species   2 augmentation radius   1.224 (default was   0.979)
       energy cutoff for augmentation   1212.9
 for species   3 augmentation radius   1.487 (default was   1.190)
       energy cutoff for augmentation   1212.9
 Maximum index for augmentation-charges in exchange         1345
  SETUP_FOCK is finished

 total amount of memory used by VASP MPI-rank0   299333. kBytes
=======================================================================

   base      :      30000. kBytes
   nonlr-proj:      18418. kBytes
   fftplans  :      56046. kBytes
   grid      :      38983. kBytes
   one-center:        311. kBytes
   HF        :        194. kBytes
   wavefun   :     155381. kBytes
 
     INWAV:  cpu time      0.0000: real time      0.0000
 initial charge density was supplied:
 charge density of overlapping atoms calculated
 number of electron     140.0000000 magnetization 
 keeping initial charge density in first step


--------------------------------------------------------------------------------------------------------


 Maximum index for non-local projection operator         6806
 Maximum index for augmentation-charges        14877 (set IRDMAX)


--------------------------------------------------------------------------------------------------------


 First call to EWALD:  gamma=   0.150
 Maximum number of real-space cells 2x 8x 2
 Maximum number of reciprocal cells 4x 1x 5

    FEWALD:  cpu time      0.0558: real time      0.0564


--------------------------------------- Ionic step        1  -------------------------------------------




--------------------------------------- Iteration      1(   1)  ---------------------------------------


    POTLOK:  cpu time      0.6742: real time      1.0431
    SETDIJ:  cpu time      0.9286: real time      0.9291
     EDDAV:  cpu time     59.1563: real time     63.3258
       DOS:  cpu time      0.0022: real time      0.0022
    --------------------------------------------
      LOOP:  cpu time     60.7613: real time     65.3003

 eigenvalue-minimisations  :  8496
 total energy-change (2. order) :-0.2152195E+05  (-0.3645262E+04)
 number of electron     140.0000000 magnetization 
 augmentation part      140.0000000 magnetization 

 Free energy of the ion-electron system (eV)
  ---------------------------------------------------
  alpha Z        PSCENC =        66.99798409
  Ewald energy   TEWEN  =     29846.57578200
  -Hartree energ DENC   =    -38369.52283743
  -exchange      EXHF   =         0.00000000
  -V(xc)+E(xc)   XCENC  =      -356.72308291
  PAW double counting   =      8612.20315120   -30130.54727153
  entropy T*S    EENTRO =        -0.00045048
  eigenvalues    EBANDS =      -360.56414406
  atomic energy  EATOM  =      9169.63111584
  Solvation  Ediel_sol  =         0.00000000
  ---------------------------------------------------
  free energy    TOTEN  =    -21521.94975327 eV

  energy without entropy =   -21521.94930280  energy(sigma->0) =   -21521.94952803
  exchange ACFDT corr.  =         0.00000000  see jH, gK, PRB 81, 115126


--------------------------------------------------------------------------------------------------------




--------------------------------------- Iteration      1(   2)  ---------------------------------------


     EDDAV:  cpu time     69.7171: real time     75.7640
       DOS:  cpu time      0.0089: real time      0.0089
    --------------------------------------------
      LOOP:  cpu time     69.7259: real time     75.7728

 eigenvalue-minimisations  : 10208
 total energy-change (2. order) :-0.6685064E+03  (-0.6419879E+03)
 number of electron     140.0000000 magnetization 
 augmentation part      140.0000000 magnetization 

 Free energy of the ion-electron system (eV)
  ---------------------------------------------------
  alpha Z        PSCENC =        66.99798409
  Ewald energy   TEWEN  =     29846.57578200
  -Hartree energ DENC   =    -38369.52283743
  -exchange      EXHF   =         0.00000000
  -V(xc)+E(xc)   XCENC  =      -356.72308291
  PAW double counting   =      8612.20315120   -30130.54727153
  entropy T*S    EENTRO =        -0.00000007
  eigenvalues    EBANDS =     -1029.07102276
  atomic energy  EATOM  =      9169.63111584
  Solvation  Ediel_sol  =         0.00000000
  ---------------------------------------------------
  free energy    TOTEN  =    -22190.45618156 eV

  energy without entropy =   -22190.45618149  energy(sigma->0) =   -22190.45618153
  exchange ACFDT corr.  =         0.00000000  see jH, gK, PRB 81, 115126


--------------------------------------------------------------------------------------------------------




--------------------------------------- Iteration      1(   3)  ---------------------------------------


     EDDAV:  cpu time     68.2742: real time     72.8626
       DOS:  cpu time      0.0326: real time      0.0446
    --------------------------------------------
      LOOP:  cpu time     68.3068: real time     72.9072

 eigenvalue-minimisations  : 10120
 total energy-change (2. order) :-0.6708418E+02  (-0.6497202E+02)
 number of electron     140.0000000 magnetization 
 augmentation part      140.0000000 magnetization 

 Free energy of the ion-electron system (eV)
  ---------------------------------------------------
  alpha Z        PSCENC =        66.99798409
  Ewald energy   TEWEN  =     29846.57578200
  -Hartree energ DENC   =    -38369.52283743
  -exchange      EXHF   =         0.00000000
  -V(xc)+E(xc)   XCENC  =      -356.72308291
  PAW double counting   =      8612.20315120   -30130.54727153
  entropy T*S    EENTRO =        -0.00000000
  eigenvalues    EBANDS =     -1096.15519847
  atomic energy  EATOM  =      9169.63111584
  Solvation  Ediel_sol  =         0.00000000
  ---------------------------------------------------
  free energy    TOTEN  =    -22257.54035721 eV

  energy without entropy =   -22257.54035721  energy(sigma->0) =   -22257.54035721
  exchange ACFDT corr.  =         0.00000000  see jH, gK, PRB 81, 115126


--------------------------------------------------------------------------------------------------------




--------------------------------------- Iteration      1(   4)  ---------------------------------------


     EDDAV:  cpu time     69.3307: real time     76.0689
       DOS:  cpu time      0.0118: real time      0.0118
    --------------------------------------------
      LOOP:  cpu time     69.3425: real time     76.0807

 eigenvalue-minimisations  : 10232
 total energy-change (2. order) :-0.2715130E+01  (-0.2709875E+01)
 number of electron     140.0000000 magnetization 
 augmentation part      140.0000000 magnetization 

 Free energy of the ion-electron system (eV)
  ---------------------------------------------------
  alpha Z        PSCENC =        66.99798409
  Ewald energy   TEWEN  =     29846.57578200
  -Hartree energ DENC   =    -38369.52283743
  -exchange      EXHF   =         0.00000000
  -V(xc)+E(xc)   XCENC  =      -356.72308291
  PAW double counting   =      8612.20315120   -30130.54727153
  entropy T*S    EENTRO =        -0.00000000
  eigenvalues    EBANDS =     -1098.87032896
  atomic energy  EATOM  =      9169.63111584
  Solvation  Ediel_sol  =         0.00000000
  ---------------------------------------------------
  free energy    TOTEN  =    -22260.25548770 eV

  energy without entropy =   -22260.25548770  energy(sigma->0) =   -22260.25548770
  exchange ACFDT corr.  =         0.00000000  see jH, gK, PRB 81, 115126


--------------------------------------------------------------------------------------------------------




--------------------------------------- Iteration      1(   5)  ---------------------------------------


     EDDAV:  cpu time     82.7072: real time     89.7728
       DOS:  cpu time      0.0157: real time      0.0160
    --------------------------------------------
      LOOP:  cpu time     82.7229: real time     89.7887

 eigenvalue-minimisations  : 12272
 total energy-change (2. order) :-0.8272375E-01  (-0.8267130E-01)
 number of electron     140.0000000 magnetization 
 augmentation part      140.0000000 magnetization 

 Free energy of the ion-electron system (eV)
  ---------------------------------------------------
  alpha Z        PSCENC =        66.99798409
  Ewald energy   TEWEN  =     29846.57578200
  -Hartree energ DENC   =    -38369.52283743
  -exchange      EXHF   =         0.00000000
  -V(xc)+E(xc)   XCENC  =      -356.72308291
  PAW double counting   =      8612.20315120   -30130.54727153
  entropy T*S    EENTRO =        -0.00000000
  eigenvalues    EBANDS =     -1098.95305270
  atomic energy  EATOM  =      9169.63111584
  Solvation  Ediel_sol  =         0.00000000
  ---------------------------------------------------
  free energy    TOTEN  =    -22260.33821144 eV

  energy without entropy =   -22260.33821144  energy(sigma->0) =   -22260.33821144
  exchange ACFDT corr.  =         0.00000000  see jH, gK, PRB 81, 115126


--------------------------------------------------------------------------------------------------------




--------------------------------------- Iteration      1(   6)  ---------------------------------------


     EDDAV:  cpu time     82.9085: real time     90.7488
       DOS:  cpu time      0.1055: real time      0.1056
    --------------------------------------------
      LOOP:  cpu time     83.0141: real time     90.8544

 eigenvalue-minimisations  : 12088
 total energy-change (2. order) :-0.2562083E-02  (-0.2558782E-02)
 number of electron     140.0000000 magnetization 
 augmentation part      140.0000000 magnetization 

 Free energy of the ion-electron system (eV)
  ---------------------------------------------------
  alpha Z        PSCENC =        66.99798409
  Ewald energy   TEWEN  =     29846.57578200
  -Hartree energ DENC   =    -38369.52283743
  -exchange      EXHF   =         0.00000000
  -V(xc)+E(xc)   XCENC  =      -356.72308291
  PAW double counting   =      8612.20315120   -30130.54727153
  entropy T*S    EENTRO =        -0.00000000
  eigenvalues    EBANDS =     -1098.95561479
  atomic energy  EATOM  =      9169.63111584
  Solvation  Ediel_sol  =         0.00000000
  ---------------------------------------------------
  free energy    TOTEN  =    -22260.34077352 eV

  energy without entropy =   -22260.34077352  energy(sigma->0) =   -22260.34077352
  exchange ACFDT corr.  =         0.00000000  see jH, gK, PRB 81, 115126


--------------------------------------------------------------------------------------------------------




--------------------------------------- Iteration      1(   7)  ---------------------------------------


     EDDAV:  cpu time     84.6184: real time     90.9287
       DOS:  cpu time      0.0017: real time      0.0017
    --------------------------------------------
      LOOP:  cpu time     84.6202: real time     90.9304

 eigenvalue-minimisations  : 12320
 total energy-change (2. order) :-0.5586259E-04  (-0.5327659E-04)
 number of electron     140.0000000 magnetization 
 augmentation part      140.0000000 magnetization 

 Free energy of the ion-electron system (eV)
  ---------------------------------------------------
  alpha Z        PSCENC =        66.99798409
  Ewald energy   TEWEN  =     29846.57578200
  -Hartree energ DENC   =    -38369.52283743
  -exchange      EXHF   =         0.00000000
  -V(xc)+E(xc)   XCENC  =      -356.72308291
  PAW double counting   =      8612.20315120   -30130.54727153
  entropy T*S    EENTRO =        -0.00000000
  eigenvalues    EBANDS =     -1098.95567065
  atomic energy  EATOM  =      9169.63111584
  Solvation  Ediel_sol  =         0.00000000
  ---------------------------------------------------
  free energy    TOTEN  =    -22260.34082939 eV

  energy without entropy =   -22260.34082939  energy(sigma->0) =   -22260.34082939
  exchange ACFDT corr.  =         0.00000000  see jH, gK, PRB 81, 115126


--------------------------------------------------------------------------------------------------------




--------------------------------------- Iteration      1(   8)  ---------------------------------------


     EDDAV:  cpu time     76.7419: real time     84.9647
       DOS:  cpu time      0.0026: real time      0.0026
    --------------------------------------------
      LOOP:  cpu time     76.7445: real time     84.9672

 eigenvalue-minimisations  : 11048
 total energy-change (2. order) :-0.1504144E-05  (-0.1377316E-05)
 number of electron     140.0000000 magnetization 
 augmentation part      140.0000000 magnetization 

 Free energy of the ion-electron system (eV)
  ---------------------------------------------------
  alpha Z        PSCENC =        66.99798409
  Ewald energy   TEWEN  =     29846.57578200
  -Hartree energ DENC   =    -38369.52283743
  -exchange      EXHF   =         0.00000000
  -V(xc)+E(xc)   XCENC  =      -356.72308291
  PAW double counting   =      8612.20315120   -30130.54727153
  entropy T*S    EENTRO =        -0.00000000
  eigenvalues    EBANDS =     -1098.95567215
  atomic energy  EATOM  =      9169.63111584
  Solvation  Ediel_sol  =         0.00000000
  ---------------------------------------------------
  free energy    TOTEN  =    -22260.34083089 eV

  energy without entropy =   -22260.34083089  energy(sigma->0) =   -22260.34083089
  exchange ACFDT corr.  =         0.00000000  see jH, gK, PRB 81, 115126


--------------------------------------------------------------------------------------------------------




--------------------------------------- Iteration      1(   9)  ---------------------------------------


     EDDAV:  cpu time     62.9242: real time     67.8725
       DOS:  cpu time      0.0138: real time      0.0139
    --------------------------------------------
      LOOP:  cpu time     62.9381: real time     67.8864

 eigenvalue-minimisations  :  8288
 total energy-change (2. order) :-0.8277493E-07  (-0.3779035E-07)
 number of electron     140.0000000 magnetization 
 augmentation part      140.0000000 magnetization 

 Free energy of the ion-electron system (eV)
  ---------------------------------------------------
  alpha Z        PSCENC =        66.99798409
  Ewald energy   TEWEN  =     29846.57578200
  -Hartree energ DENC   =    -38369.52283743
  -exchange      EXHF   =         0.00000000
  -V(xc)+E(xc)   XCENC  =      -356.72308291
  PAW double counting   =      8612.20315120   -30130.54727153
  entropy T*S    EENTRO =        -0.00000000
  eigenvalues    EBANDS =     -1098.95567224
  atomic energy  EATOM  =      9169.63111584
  Solvation  Ediel_sol  =         0.00000000
  ---------------------------------------------------
  free energy    TOTEN  =    -22260.34083097 eV

  energy without entropy =   -22260.34083097  energy(sigma->0) =   -22260.34083097
  exchange ACFDT corr.  =         0.00000000  see jH, gK, PRB 81, 115126


--------------------------------------------------------------------------------------------------------




--------------------------------------- Iteration      1(  10)  ---------------------------------------


     EDDAV:  cpu time     52.7119: real time     57.3903
       DOS:  cpu time      0.0019: real time      0.0019
    --------------------------------------------
      LOOP:  cpu time     52.7138: real time     57.3922

 eigenvalue-minimisations  :  6728
 total energy-change (2. order) :-0.8021743E-08  (-0.4127027E-08)
 number of electron     140.0000000 magnetization 
 augmentation part      140.0000000 magnetization 

 Free energy of the ion-electron system (eV)
  ---------------------------------------------------
  alpha Z        PSCENC =        66.99798409
  Ewald energy   TEWEN  =     29846.57578200
  -Hartree energ DENC   =    -38369.52283743
  -exchange      EXHF   =         0.00000000
  -V(xc)+E(xc)   XCENC  =      -356.72308291
  PAW double counting   =      8612.20315120   -30130.54727153
  entropy T*S    EENTRO =        -0.00000000
  eigenvalues    EBANDS =     -1098.95567224
  atomic energy  EATOM  =      9169.63111584
  Solvation  Ediel_sol  =         0.00000000
  ---------------------------------------------------
  free energy    TOTEN  =    -22260.34083098 eV

  energy without entropy =   -22260.34083098  energy(sigma->0) =   -22260.34083098
  exchange ACFDT corr.  =         0.00000000  see jH, gK, PRB 81, 115126


--------------------------------------------------------------------------------------------------------




--------------------------------------- Iteration      1(  11)  ---------------------------------------


     EDDAV:  cpu time     49.8921: real time     55.7724
       DOS:  cpu time      0.0050: real time      0.0051
    --------------------------------------------
      LOOP:  cpu time     49.8971: real time     55.7776

 eigenvalue-minimisations  :  6240
 total energy-change (2. order) :-0.2284651E-08  (-0.1592832E-08)
 number of electron     140.0000000 magnetization 
 augmentation part      140.0000000 magnetization 

 Free energy of the ion-electron system (eV)
  ---------------------------------------------------
  alpha Z        PSCENC =        66.99798409
  Ewald energy   TEWEN  =     29846.57578200
  -Hartree energ DENC   =    -38369.52283743
  -exchange      EXHF   =         0.00000000
  -V(xc)+E(xc)   XCENC  =      -356.72308291
  PAW double counting   =      8612.20315120   -30130.54727153
  entropy T*S    EENTRO =        -0.00000000
  eigenvalues    EBANDS =     -1098.95567225
  atomic energy  EATOM  =      9169.63111584
  Solvation  Ediel_sol  =         0.00000000
  ---------------------------------------------------
  free energy    TOTEN  =    -22260.34083098 eV

  energy without entropy =   -22260.34083098  energy(sigma->0) =   -22260.34083098
  exchange ACFDT corr.  =         0.00000000  see jH, gK, PRB 81, 115126


--------------------------------------------------------------------------------------------------------




--------------------------------------- Iteration      1(  12)  ---------------------------------------


    POTLOK:  cpu time      1.1274: real time      1.1600
    SETDIJ:  cpu time      1.3490: real time      1.3658
     EDDAV:  cpu time  18210.3725: real time  19403.6490
       DOS:  cpu time      0.0015: real time      0.0177
    CHARGE:  cpu time      7.9050: real time      7.9119
    MIXING:  cpu time      0.0063: real time      0.0063
    --------------------------------------------
      LOOP:  cpu time  18220.7618: real time  19414.1106

 eigenvalue-minimisations  :  9040
 total energy-change (2. order) : 0.2211340E+05  (-0.8856607E+01)
 number of electron     140.0000000 magnetization 
 augmentation part       28.1133666 magnetization 

 Free energy of the ion-electron system (eV)
  ---------------------------------------------------
  alpha Z        PSCENC =        66.99798409
  Ewald energy   TEWEN  =     29846.57578200
  -Hartree energ DENC   =    -38369.52283743
  -exchange      EXHF   =       264.12622215
  -V(xc)+E(xc)   XCENC  =      -299.47879312
  PAW double counting   =      8546.71241339    -8365.30901786
  entropy T*S    EENTRO =        -0.00000000
  eigenvalues    EBANDS =     -1006.67480700
  atomic energy  EATOM  =      9169.63111584
  Solvation  Ediel_sol  =         0.00000000
  ---------------------------------------------------
  free energy    TOTEN  =      -146.94193794 eV

  energy without entropy =     -146.94193794  energy(sigma->0) =     -146.94193794
  exchange ACFDT corr.  =         0.00000000  see jH, gK, PRB 81, 115126


--------------------------------------------------------------------------------------------------------




--------------------------------------- Iteration      1(  13)  ---------------------------------------


    POTLOK:  cpu time      1.6987: real time      1.7000
    SETDIJ:  cpu time      1.8001: real time      1.8008
     EDDAV:  cpu time  19056.9214: real time  19071.3188
       DOS:  cpu time      0.0017: real time      0.0017
    CHARGE:  cpu time      7.9042: real time      7.9109
    MIXING:  cpu time      0.0063: real time      0.0063
    --------------------------------------------
      LOOP:  cpu time  19068.3325: real time  19082.7385

 eigenvalue-minimisations  : 11864
 total energy-change (2. order) : 0.1332080E+00  (-0.8633395E+00)
 number of electron     140.0000001 magnetization 
 augmentation part       26.2724581 magnetization 

 Free energy of the ion-electron system (eV)
  ---------------------------------------------------
  alpha Z        PSCENC =        66.99798409
  Ewald energy   TEWEN  =     29846.57578200
  -Hartree energ DENC   =    -38436.32891053
  -exchange      EXHF   =       256.20611881
  -V(xc)+E(xc)   XCENC  =      -298.51848963
  PAW double counting   =     10182.40860557   -10005.48910084
  entropy T*S    EENTRO =        -0.00000000
  eigenvalues    EBANDS =      -928.29183527
  atomic energy  EATOM  =      9169.63111584
  Solvation  Ediel_sol  =         0.00000000
  ---------------------------------------------------
  free energy    TOTEN  =      -146.80872994 eV

  energy without entropy =     -146.80872994  energy(sigma->0) =     -146.80872994
  exchange ACFDT corr.  =         0.00000000  see jH, gK, PRB 81, 115126


--------------------------------------------------------------------------------------------------------




--------------------------------------- Iteration      1(  14)  ---------------------------------------


    POTLOK:  cpu time      1.6844: real time      1.6879
    SETDIJ:  cpu time      1.8297: real time      1.8307
     EDDAV:  cpu time  19280.8500: real time  19891.3888
       DOS:  cpu time      0.0018: real time      0.0018
    CHARGE:  cpu time      7.8564: real time      7.8816
    MIXING:  cpu time      0.0175: real time      0.0175
    --------------------------------------------
      LOOP:  cpu time  19292.2398: real time  19902.8083

 eigenvalue-minimisations  : 10984
 total energy-change (2. order) : 0.1279012E+01  (-0.2285357E+00)
 number of electron     140.0000001 magnetization 
 augmentation part       25.8305165 magnetization 

 Free energy of the ion-electron system (eV)
  ---------------------------------------------------
  alpha Z        PSCENC =        66.99798409
  Ewald energy   TEWEN  =     29846.57578200
  -Hartree energ DENC   =    -38441.33623926
  -exchange      EXHF   =       248.35181874
  -V(xc)+E(xc)   XCENC  =      -298.49081442
  PAW double counting   =     11762.44902782   -11583.98393370
  entropy T*S    EENTRO =        -0.00000000
  eigenvalues    EBANDS =      -915.72445862
  atomic energy  EATOM  =      9169.63111584
  Solvation  Ediel_sol  =         0.00000000
  ---------------------------------------------------
  free energy    TOTEN  =      -145.52971750 eV

  energy without entropy =     -145.52971750  energy(sigma->0) =     -145.52971750
  exchange ACFDT corr.  =         0.00000000  see jH, gK, PRB 81, 115126


--------------------------------------------------------------------------------------------------------




--------------------------------------- Iteration      1(  15)  ---------------------------------------


    POTLOK:  cpu time      1.7041: real time      1.7051
    SETDIJ:  cpu time      1.7985: real time      1.7991
     EDDAV:  cpu time  19156.0057: real time  19524.0347
       DOS:  cpu time      0.0018: real time      0.0018
    CHARGE:  cpu time      7.8782: real time      7.8845
    MIXING:  cpu time      0.0056: real time      0.0056
    --------------------------------------------
      LOOP:  cpu time  19167.3937: real time  19535.4307

 eigenvalue-minimisations  : 11080
 total energy-change (2. order) : 0.1569967E+01  (-0.1249536E+00)
 number of electron     140.0000001 magnetization 
 augmentation part       26.6105823 magnetization 

 Free energy of the ion-electron system (eV)
  ---------------------------------------------------
  alpha Z        PSCENC =        66.99798409
  Ewald energy   TEWEN  =     29846.57578200
  -Hartree energ DENC   =    -38435.00595501
  -exchange      EXHF   =       245.78024482
  -V(xc)+E(xc)   XCENC  =      -298.74302610
  PAW double counting   =     13274.82897140   -13093.72435117
  entropy T*S    EENTRO =        -0.00000000
  eigenvalues    EBANDS =      -920.30051663
  atomic energy  EATOM  =      9169.63111584
  Solvation  Ediel_sol  =         0.00000000
  ---------------------------------------------------
  free energy    TOTEN  =      -143.95975077 eV

  energy without entropy =     -143.95975077  energy(sigma->0) =     -143.95975077
  exchange ACFDT corr.  =         0.00000000  see jH, gK, PRB 81, 115126


--------------------------------------------------------------------------------------------------------




--------------------------------------- Iteration      1(  16)  ---------------------------------------


    POTLOK:  cpu time      1.6892: real time      1.6917
    SETDIJ:  cpu time      1.8072: real time      1.8079
     EDDAV:  cpu time  19189.9063: real time  19204.4564
       DOS:  cpu time      0.0018: real time      0.0018
    CHARGE:  cpu time      7.8958: real time      7.9023
    MIXING:  cpu time      0.0055: real time      0.0055
    --------------------------------------------
      LOOP:  cpu time  19201.3057: real time  19215.8655

 eigenvalue-minimisations  : 11312
 total energy-change (2. order) : 0.7177398E+00  (-0.8258239E-01)
 number of electron     140.0000001 magnetization 
 augmentation part       27.2924622 magnetization 

 Free energy of the ion-electron system (eV)
  ---------------------------------------------------
  alpha Z        PSCENC =        66.99798409
  Ewald energy   TEWEN  =     29846.57578200
  -Hartree energ DENC   =    -38443.02106558
  -exchange      EXHF   =       247.29715523
  -V(xc)+E(xc)   XCENC  =      -298.74787146
  PAW double counting   =     14731.31259234   -14549.53256238
  entropy T*S    EENTRO =        -0.00000000
  eigenvalues    EBANDS =      -913.75514101
  atomic energy  EATOM  =      9169.63111584
  Solvation  Ediel_sol  =         0.00000000
  ---------------------------------------------------
  free energy    TOTEN  =      -143.24201093 eV

  energy without entropy =     -143.24201093  energy(sigma->0) =     -143.24201093
  exchange ACFDT corr.  =         0.00000000  see jH, gK, PRB 81, 115126


--------------------------------------------------------------------------------------------------------




--------------------------------------- Iteration      1(  17)  ---------------------------------------


    POTLOK:  cpu time      0.9055: real time      2.0046
    SETDIJ:  cpu time      1.7899: real time      1.7906
     EDDAV:  cpu time  19135.5342: real time  19149.9496
       DOS:  cpu time      0.0018: real time      0.0018
    CHARGE:  cpu time      7.9197: real time      7.9253
    MIXING:  cpu time      0.0056: real time      0.0056
    --------------------------------------------
      LOOP:  cpu time  19146.1567: real time  19161.6774

 eigenvalue-minimisations  :  8944
 total energy-change (2. order) : 0.4367139E+00  (-0.2728448E-01)
 number of electron     140.0000001 magnetization 
 augmentation part       27.5136291 magnetization 

 Free energy of the ion-electron system (eV)
  ---------------------------------------------------
  alpha Z        PSCENC =        66.99798409
  Ewald energy   TEWEN  =     29846.57578200
  -Hartree energ DENC   =    -38458.79479623
  -exchange      EXHF   =       248.69951191
  -V(xc)+E(xc)   XCENC  =      -298.55477939
  PAW double counting   =     16142.90269588   -15961.87424259
  entropy T*S    EENTRO =        -0.00000000
  eigenvalues    EBANDS =      -898.38856852
  atomic energy  EATOM  =      9169.63111584
  Solvation  Ediel_sol  =         0.00000000
  ---------------------------------------------------
  free energy    TOTEN  =      -142.80529700 eV

  energy without entropy =     -142.80529700  energy(sigma->0) =     -142.80529700
  exchange ACFDT corr.  =         0.00000000  see jH, gK, PRB 81, 115126


--------------------------------------------------------------------------------------------------------




--------------------------------------- Iteration      1(  18)  ---------------------------------------


    POTLOK:  cpu time      1.7026: real time      1.7036
    SETDIJ:  cpu time      1.7940: real time      1.7958
     EDDAV:  cpu time  19084.5319: real time  19099.0212
       DOS:  cpu time      0.0018: real time      0.0018
    CHARGE:  cpu time      7.8981: real time      7.9045
    MIXING:  cpu time      0.0057: real time      0.0057
    --------------------------------------------
      LOOP:  cpu time  19095.9342: real time  19110.4327

 eigenvalue-minimisations  : 10432
 total energy-change (2. order) : 0.3000460E+00  (-0.1170587E-01)
 number of electron     140.0000002 magnetization 
 augmentation part       27.5004620 magnetization 

 Free energy of the ion-electron system (eV)
  ---------------------------------------------------
  alpha Z        PSCENC =        66.99798409
  Ewald energy   TEWEN  =     29846.57578200
  -Hartree energ DENC   =    -38472.01671710
  -exchange      EXHF   =       248.76473759
  -V(xc)+E(xc)   XCENC  =      -298.35225551
  PAW double counting   =     17511.02496593   -17330.95058427
  entropy T*S    EENTRO =        -0.00000000
  eigenvalues    EBANDS =      -884.18027954
  atomic energy  EATOM  =      9169.63111584
  Solvation  Ediel_sol  =         0.00000000
  ---------------------------------------------------
  free energy    TOTEN  =      -142.50525097 eV

  energy without entropy =     -142.50525097  energy(sigma->0) =     -142.50525097
  exchange ACFDT corr.  =         0.00000000  see jH, gK, PRB 81, 115126


--------------------------------------------------------------------------------------------------------




--------------------------------------- Iteration      1(  19)  ---------------------------------------


    POTLOK:  cpu time      1.6888: real time      1.6897
    SETDIJ:  cpu time      1.7852: real time      1.7858
     EDDAV:  cpu time  19152.9048: real time  19167.3741
       DOS:  cpu time      0.0018: real time      0.0018
    CHARGE:  cpu time      7.8883: real time      7.8939
    MIXING:  cpu time      0.0051: real time      0.0051
    --------------------------------------------
      LOOP:  cpu time  19164.2739: real time  19178.7504

 eigenvalue-minimisations  :  9592
 total energy-change (2. order) : 0.1849866E+00  (-0.9464866E-02)
 number of electron     140.0000002 magnetization 
 augmentation part       27.5152686 magnetization 

 Free energy of the ion-electron system (eV)
  ---------------------------------------------------
  alpha Z        PSCENC =        66.99798409
  Ewald energy   TEWEN  =     29846.57578200
  -Hartree energ DENC   =    -38479.70827907
  -exchange      EXHF   =       248.23446878
  -V(xc)+E(xc)   XCENC  =      -298.22167872
  PAW double counting   =     18818.87995149   -18639.45372574
  entropy T*S    EENTRO =        -0.00000000
  eigenvalues    EBANDS =      -875.25588301
  atomic energy  EATOM  =      9169.63111584
  Solvation  Ediel_sol  =         0.00000000
  ---------------------------------------------------
  free energy    TOTEN  =      -142.32026433 eV

  energy without entropy =     -142.32026433  energy(sigma->0) =     -142.32026433
  exchange ACFDT corr.  =         0.00000000  see jH, gK, PRB 81, 115126


--------------------------------------------------------------------------------------------------------




--------------------------------------- Iteration      1(  20)  ---------------------------------------


    POTLOK:  cpu time      1.6768: real time      1.6789
    SETDIJ:  cpu time      1.8274: real time      1.8281
     EDDAV:  cpu time  19113.2486: real time  19127.6671
       DOS:  cpu time      0.0017: real time      0.0017
    CHARGE:  cpu time      7.9256: real time      7.9318
    MIXING:  cpu time      0.0051: real time      0.0051
    --------------------------------------------
      LOOP:  cpu time  19124.6853: real time  19139.1127

 eigenvalue-minimisations  :  9768
 total energy-change (2. order) : 0.1249582E+00  (-0.4283436E-02)
 number of electron     140.0000002 magnetization 
 augmentation part       27.5736516 magnetization 

 Free energy of the ion-electron system (eV)
  ---------------------------------------------------
  alpha Z        PSCENC =        66.99798409
  Ewald energy   TEWEN  =     29846.57578200
  -Hartree energ DENC   =    -38484.15034312
  -exchange      EXHF   =       247.95198374
  -V(xc)+E(xc)   XCENC  =      -298.13176889
  PAW double counting   =     20049.69851538   -19870.83165618
  entropy T*S    EENTRO =        -0.00000000
  eigenvalues    EBANDS =      -869.93691905
  atomic energy  EATOM  =      9169.63111584
  Solvation  Ediel_sol  =         0.00000000
  ---------------------------------------------------
  free energy    TOTEN  =      -142.19530618 eV

  energy without entropy =     -142.19530618  energy(sigma->0) =     -142.19530618
  exchange ACFDT corr.  =         0.00000000  see jH, gK, PRB 81, 115126


--------------------------------------------------------------------------------------------------------




--------------------------------------- Iteration      1(  21)  ---------------------------------------


    POTLOK:  cpu time      1.6867: real time      1.6879
    SETDIJ:  cpu time      1.7829: real time      1.7836
     EDDAV:  cpu time  19146.0197: real time  19160.4080
       DOS:  cpu time      0.0018: real time      0.0018
    CHARGE:  cpu time      7.9045: real time      7.9110
    MIXING:  cpu time      0.0059: real time      0.0059
    --------------------------------------------
      LOOP:  cpu time  19157.4015: real time  19171.7981

 eigenvalue-minimisations  :  9544
 total energy-change (2. order) : 0.8649231E-01  (-0.2532598E-02)
 number of electron     140.0000002 magnetization 
 augmentation part       27.6330071 magnetization 

 Free energy of the ion-electron system (eV)
  ---------------------------------------------------
  alpha Z        PSCENC =        66.99798409
  Ewald energy   TEWEN  =     29846.57578200
  -Hartree energ DENC   =    -38487.48697555
  -exchange      EXHF   =       247.95380806
  -V(xc)+E(xc)   XCENC  =      -298.04753164
  PAW double counting   =     21197.81388256   -21019.55423252
  entropy T*S    EENTRO =        -0.00000000
  eigenvalues    EBANDS =      -865.99264671
  atomic energy  EATOM  =      9169.63111584
  Solvation  Ediel_sol  =         0.00000000
  ---------------------------------------------------
  free energy    TOTEN  =      -142.10881387 eV

  energy without entropy =     -142.10881387  energy(sigma->0) =     -142.10881387
  exchange ACFDT corr.  =         0.00000000  see jH, gK, PRB 81, 115126


--------------------------------------------------------------------------------------------------------




--------------------------------------- Iteration      1(  22)  ---------------------------------------


    POTLOK:  cpu time      1.6973: real time      1.6984
    SETDIJ:  cpu time      1.7801: real time      1.7808
     EDDAV:  cpu time  19151.0755: real time  19165.4796
       DOS:  cpu time      0.0018: real time      0.0018
    CHARGE:  cpu time      7.9052: real time      7.9118
    MIXING:  cpu time      0.0055: real time      0.0055
    --------------------------------------------
      LOOP:  cpu time  19162.4655: real time  19176.8779

 eigenvalue-minimisations  :  9480
 total energy-change (2. order) : 0.6085448E-01  (-0.1455338E-02)
 number of electron     140.0000002 magnetization 
 augmentation part       27.6692410 magnetization 

 Free energy of the ion-electron system (eV)
  ---------------------------------------------------
  alpha Z        PSCENC =        66.99798409
  Ewald energy   TEWEN  =     29846.57578200
  -Hartree energ DENC   =    -38490.29806105
  -exchange      EXHF   =       248.02855937
  -V(xc)+E(xc)   XCENC  =      -297.96096268
  PAW double counting   =     22265.82824680   -22088.23150184
  entropy T*S    EENTRO =        -0.00000000
  eigenvalues    EBANDS =      -862.61912192
  atomic energy  EATOM  =      9169.63111584
  Solvation  Ediel_sol  =         0.00000000
  ---------------------------------------------------
  free energy    TOTEN  =      -142.04795939 eV

  energy without entropy =     -142.04795939  energy(sigma->0) =     -142.04795939
  exchange ACFDT corr.  =         0.00000000  see jH, gK, PRB 81, 115126


--------------------------------------------------------------------------------------------------------




--------------------------------------- Iteration      1(  23)  ---------------------------------------


    POTLOK:  cpu time      1.6816: real time      1.6825
    SETDIJ:  cpu time      1.8174: real time      1.8181
     EDDAV:  cpu time  19164.4495: real time  19178.8217
       DOS:  cpu time      0.0018: real time      0.0018
    CHARGE:  cpu time      7.8956: real time      7.9023
    MIXING:  cpu time      0.0056: real time      0.0056
    --------------------------------------------
      LOOP:  cpu time  19175.8515: real time  19190.2320

 eigenvalue-minimisations  :  9288
 total energy-change (2. order) : 0.4389806E-01  (-0.8758389E-03)
 number of electron     140.0000002 magnetization 
 augmentation part       27.6847382 magnetization 

 Free energy of the ion-electron system (eV)
  ---------------------------------------------------
  alpha Z        PSCENC =        66.99798409
  Ewald energy   TEWEN  =     29846.57578200
  -Hartree energ DENC   =    -38492.49001515
  -exchange      EXHF   =       248.05160305
  -V(xc)+E(xc)   XCENC  =      -297.87889538
  PAW double counting   =     23256.16153075   -23079.22256364
  entropy T*S    EENTRO =        -0.00000000
  eigenvalues    EBANDS =      -859.83060289
  atomic energy  EATOM  =      9169.63111584
  Solvation  Ediel_sol  =         0.00000000
  ---------------------------------------------------
  free energy    TOTEN  =      -142.00406133 eV

  energy without entropy =     -142.00406133  energy(sigma->0) =     -142.00406133
  exchange ACFDT corr.  =         0.00000000  see jH, gK, PRB 81, 115126


--------------------------------------------------------------------------------------------------------




--------------------------------------- Iteration      1(  24)  ---------------------------------------


    POTLOK:  cpu time      1.6811: real time      1.6822
    SETDIJ:  cpu time      1.8163: real time      1.8170
     EDDAV:  cpu time  19126.7744: real time  19141.1338
       DOS:  cpu time      0.0018: real time      0.0018
    CHARGE:  cpu time      7.9070: real time      7.9139
    MIXING:  cpu time      0.0054: real time      0.0054
    --------------------------------------------
      LOOP:  cpu time  19138.1861: real time  19152.5540

 eigenvalue-minimisations  :  9560
 total energy-change (2. order) : 0.3209281E-01  (-0.5604958E-03)
 number of electron     140.0000002 magnetization 
 augmentation part       27.6939214 magnetization 

 Free energy of the ion-electron system (eV)
  ---------------------------------------------------
  alpha Z        PSCENC =        66.99798409
  Ewald energy   TEWEN  =     29846.57578200
  -Hartree energ DENC   =    -38494.02318139
  -exchange      EXHF   =       248.02666834
  -V(xc)+E(xc)   XCENC  =      -297.80713072
  PAW double counting   =     24171.16774112   -23994.83812421
  entropy T*S    EENTRO =        -0.00000000
  eigenvalues    EBANDS =      -857.70282358
  atomic energy  EATOM  =      9169.63111584
  Solvation  Ediel_sol  =         0.00000000
  ---------------------------------------------------
  free energy    TOTEN  =      -141.97196852 eV

  energy without entropy =     -141.97196852  energy(sigma->0) =     -141.97196852
  exchange ACFDT corr.  =         0.00000000  see jH, gK, PRB 81, 115126


--------------------------------------------------------------------------------------------------------




--------------------------------------- Iteration      1(  25)  ---------------------------------------


    POTLOK:  cpu time      1.6863: real time      1.6872
    SETDIJ:  cpu time      1.8157: real time      1.8164
     EDDAV:  cpu time  19175.1881: real time  19189.4855
       DOS:  cpu time      0.0018: real time      0.0018
    CHARGE:  cpu time      7.8997: real time      7.9063
    MIXING:  cpu time      0.0053: real time      0.0053
    --------------------------------------------
      LOOP:  cpu time  19186.5969: real time  19200.9025

 eigenvalue-minimisations  :  9496
 total energy-change (2. order) : 0.2378017E-01  (-0.3657590E-03)
 number of electron     140.0000002 magnetization 
 augmentation part       27.7026815 magnetization 

 Free energy of the ion-electron system (eV)
[...]
  1  2  2   1.890     0.000  -0.250  -0.494     1.000   0.000   0.000     0.000   0.000   1.000
  1  2  3   1.890     0.000  -0.250  -0.494     1.000   0.000   0.000     0.000   0.000   1.000
  1  2  4   1.890     0.000  -0.250  -0.494     1.000   0.000   0.000     0.000   0.000   1.000
  1  2  5   1.890     0.000  -0.250  -0.494     1.000   0.000   0.000     0.000   0.000   1.000
  1  0  1   1.890    -0.196  -0.250   0.423     1.000   0.000   0.000     0.000   0.000   1.000
  1  1  1   1.890    -0.196  -0.250   0.423     1.000   0.000   0.000     0.000   0.000   1.000
  1  1  2   1.890    -0.196  -0.250   0.423     1.000   0.000   0.000     0.000   0.000   1.000
  1  1  3   1.890    -0.196  -0.250   0.423     1.000   0.000   0.000     0.000   0.000   1.000
  1  0  1   1.890     0.304   0.250  -0.423     1.000   0.000   0.000     0.000   0.000   1.000
  1  1  1   1.890     0.304   0.250  -0.423     1.000   0.000   0.000     0.000   0.000   1.000
  1  1  2   1.890     0.304   0.250  -0.423     1.000   0.000   0.000     0.000   0.000   1.000
  1  1  3   1.890     0.304   0.250  -0.423     1.000   0.000   0.000     0.000   0.000   1.000
  1  0  1   1.890    -0.399   0.250   0.422     1.000   0.000   0.000     0.000   0.000   1.000
  1  1  1   1.890    -0.399   0.250   0.422     1.000   0.000   0.000     0.000   0.000   1.000
  1  1  2   1.890    -0.399   0.250   0.422     1.000   0.000   0.000     0.000   0.000   1.000
  1  1  3   1.890    -0.399   0.250   0.422     1.000   0.000   0.000     0.000   0.000   1.000
  1  0  1   1.890     0.101  -0.250  -0.422     1.000   0.000   0.000     0.000   0.000   1.000
  1  1  1   1.890     0.101  -0.250  -0.422     1.000   0.000   0.000     0.000   0.000   1.000
  1  1  2   1.890     0.101  -0.250  -0.422     1.000   0.000   0.000     0.000   0.000   1.000
  1  1  3   1.890     0.101  -0.250  -0.422     1.000   0.000   0.000     0.000   0.000   1.000
  1  0  1   1.890     0.197  -0.250   0.423     1.000   0.000   0.000     0.000   0.000   1.000
  1  1  1   1.890     0.197  -0.250   0.423     1.000   0.000   0.000     0.000   0.000   1.000
  1  1  2   1.890     0.197  -0.250   0.423     1.000   0.000   0.000     0.000   0.000   1.000
  1  1  3   1.890     0.197  -0.250   0.423     1.000   0.000   0.000     0.000   0.000   1.000
  1  0  1   1.890    -0.303   0.250  -0.423     1.000   0.000   0.000     0.000   0.000   1.000
  1  1  1   1.890    -0.303   0.250  -0.423     1.000   0.000   0.000     0.000   0.000   1.000
  1  1  2   1.890    -0.303   0.250  -0.423     1.000   0.000   0.000     0.000   0.000   1.000
  1  1  3   1.890    -0.303   0.250  -0.423     1.000   0.000   0.000     0.000   0.000   1.000
  1  0  1   1.890     0.400   0.250   0.422     1.000   0.000   0.000     0.000   0.000   1.000
  1  1  1   1.890     0.400   0.250   0.422     1.000   0.000   0.000     0.000   0.000   1.000
  1  1  2   1.890     0.400   0.250   0.422     1.000   0.000   0.000     0.000   0.000   1.000
  1  1  3   1.890     0.400   0.250   0.422     1.000   0.000   0.000     0.000   0.000   1.000
  1  0  1   1.890    -0.100  -0.250  -0.422     1.000   0.000   0.000     0.000   0.000   1.000
  1  1  1   1.890    -0.100  -0.250  -0.422     1.000   0.000   0.000     0.000   0.000   1.000
  1  1  2   1.890    -0.100  -0.250  -0.422     1.000   0.000   0.000     0.000   0.000   1.000
  1  1  3   1.890    -0.100  -0.250  -0.422     1.000   0.000   0.000     0.000   0.000   1.000
  1  0  1   1.890     0.000   0.250   0.435     1.000   0.000   0.000     0.000   0.000   1.000
  1  1  1   1.890     0.000   0.250   0.435     1.000   0.000   0.000     0.000   0.000   1.000
  1  1  2   1.890     0.000   0.250   0.435     1.000   0.000   0.000     0.000   0.000   1.000
  1  1  3   1.890     0.000   0.250   0.435     1.000   0.000   0.000     0.000   0.000   1.000
  1  0  1   1.890    -0.500  -0.250  -0.435     1.000   0.000   0.000     0.000   0.000   1.000
  1  1  1   1.890    -0.500  -0.250  -0.435     1.000   0.000   0.000     0.000   0.000   1.000
  1  1  2   1.890    -0.500  -0.250  -0.435     1.000   0.000   0.000     0.000   0.000   1.000
  1  1  3   1.890    -0.500  -0.250  -0.435     1.000   0.000   0.000     0.000   0.000   1.000
  1  0  1   1.890    -0.256   0.221  -0.449     1.000   0.000   0.000     0.000   0.000   1.000
  1  0  1   1.890     0.005   0.115   0.016     1.000   0.000   0.000     0.000   0.000   1.000
  1  0  1   1.890     0.198  -0.482   0.430     1.000   0.000   0.000     0.000   0.000   1.000
  1  0  1   1.890     0.096  -0.008  -0.400     1.000   0.000   0.000     0.000   0.000   1.000
  1  0  1   1.890    -0.294  -0.244  -0.043     1.000   0.000   0.000     0.000   0.000   1.000
  1  0  1   1.890     0.486  -0.437   0.148     1.000   0.000   0.000     0.000   0.000   1.000
  1  0  1   1.890     0.040  -0.393  -0.282     1.000   0.000   0.000     0.000   0.000   1.000
  1  0  1   1.890    -0.430  -0.141   0.054     1.000   0.000   0.000     0.000   0.000   1.000
  1  0  1   1.890     0.046  -0.067  -0.443     1.000   0.000   0.000     0.000   0.000   1.000
  1  0  1   1.890    -0.427  -0.237   0.119     1.000   0.000   0.000     0.000   0.000   1.000
  1  0  1   1.890     0.469   0.187   0.139     1.000   0.000   0.000     0.000   0.000   1.000
  1  0  1   1.890    -0.199   0.450   0.156     1.000   0.000   0.000     0.000   0.000   1.000
  1  0  1   1.890     0.235  -0.314   0.496     1.000   0.000   0.000     0.000   0.000   1.000
  1  0  1   1.890     0.017   0.266   0.013     1.000   0.000   0.000     0.000   0.000   1.000
  1  0  1   1.890     0.325  -0.170   0.046     1.000   0.000   0.000     0.000   0.000   1.000
  1  0  1   1.890    -0.180   0.315  -0.411     1.000   0.000   0.000     0.000   0.000   1.000
  1  0  1   1.890     0.413   0.176  -0.051     1.000   0.000   0.000     0.000   0.000   1.000
  1  0  1   1.890    -0.418  -0.407  -0.100     1.000   0.000   0.000     0.000   0.000   1.000
  1  0  1   1.890    -0.278   0.164  -0.375     1.000   0.000   0.000     0.000   0.000   1.000
  1  0  1   1.890     0.285   0.077  -0.151     1.000   0.000   0.000     0.000   0.000   1.000
  1  0  1   1.890     0.207   0.167  -0.468     1.000   0.000   0.000     0.000   0.000   1.000
  1  0  1   1.890     0.202  -0.471  -0.178     1.000   0.000   0.000     0.000   0.000   1.000
  1  0  1   1.890    -0.121  -0.500  -0.452     1.000   0.000   0.000     0.000   0.000   1.000
  1  0  1   1.890     0.188  -0.161  -0.030     1.000   0.000   0.000     0.000   0.000   1.000
  1  0  1   1.890     0.358   0.187   0.242     1.000   0.000   0.000     0.000   0.000   1.000
  1  0  1   1.890     0.045   0.497   0.392     1.000   0.000   0.000     0.000   0.000   1.000
  1  0  1   1.890    -0.230  -0.206  -0.459     1.000   0.000   0.000     0.000   0.000   1.000
  1  0  1   1.890    -0.048   0.217   0.248     1.000   0.000   0.000     0.000   0.000   1.000
  1  0  1   1.890     0.164   0.320   0.380     1.000   0.000   0.000     0.000   0.000   1.000
  1  0  1   1.890     0.284   0.111   0.358     1.000   0.000   0.000     0.000   0.000   1.000
  1  0  1   1.890     0.164  -0.370   0.437     1.000   0.000   0.000     0.000   0.000   1.000
  1  0  1   1.890     0.223   0.290   0.246     1.000   0.000   0.000     0.000   0.000   1.000
  1  0  1   1.890    -0.012   0.406   0.268     1.000   0.000   0.000     0.000   0.000   1.000
  1  0  1   1.890     0.457  -0.465  -0.275     1.000   0.000   0.000     0.000   0.000   1.000
  1  0  1   1.890    -0.384   0.446   0.058     1.000   0.000   0.000     0.000   0.000   1.000
  1  0  1   1.890     0.238   0.366   0.242     1.000   0.000   0.000     0.000   0.000   1.000
  1  0  1   1.890     0.333  -0.084   0.115     1.000   0.000   0.000     0.000   0.000   1.000
  1  0  1   1.890    -0.315   0.344  -0.247     1.000   0.000   0.000     0.000   0.000   1.000
  1  0  1   1.890     0.199  -0.439   0.087     1.000   0.000   0.000     0.000   0.000   1.000
  1  0  1   1.890     0.484  -0.200  -0.269     1.000   0.000   0.000     0.000   0.000   1.000
 
 Computing AMN (projections onto localized orbitals)
 Writing AMN to wannier90.amn

 MMN -> overlap matrix elements
 AMM -> projections of Bloch states onto localized states
 UMN -> unitary matrix transforming from Bloch states to Wannier states

 Parameters of MLWF datastructure
 num_band =          160
 num_wann =          160

 Computiation of AMN
 proj = Wannier90

 Transformation from AMN to UMN
 trafo = One-shot SVD method

------------------------ end of MLWF driver reached ----------------------------------------------------



 total charge

# of ion       s       p       d       tot
------------------------------------------
    1        1.028   0.692   3.167   4.887
    2        1.028   0.692   3.167   4.887
    3        1.028   0.692   3.167   4.887
    4        1.028   0.692   3.167   4.887
    5        0.437   0.520   8.550   9.506
    6        0.436   0.520   8.550   9.506
    7        0.437   0.520   8.550   9.506
    8        0.437   0.520   8.550   9.507
    9        0.391   0.462   8.540   9.393
   10        0.391   0.462   8.540   9.393
   11        1.337   2.094   0.061   3.491
   12        1.337   2.094   0.061   3.491
   13        1.340   2.120   0.062   3.522
   14        1.340   2.120   0.062   3.522
   15        1.337   2.094   0.061   3.491
   16        1.337   2.094   0.061   3.491
   17        1.340   2.120   0.062   3.522
   18        1.340   2.120   0.062   3.522
   19        1.330   2.158   0.059   3.547
   20        1.330   2.159   0.059   3.548
--------------------------------------------------
tot         20.011  26.943  64.553 111.508
 
    CHARGE:  cpu time      7.8870: real time      7.8945
    FORLOC:  cpu time      0.0708: real time      0.0708
    FORHF :  cpu time  13268.3341: real time  13277.3004
    FORNL :  cpu time     19.1793: real time     19.2035
    STRESS:  cpu time     55.8401: real time     55.8832
    FORCOR:  cpu time      0.8164: real time      0.8169
    FORHAR:  cpu time      0.1505: real time      0.1506
    MIXING:  cpu time      0.0051: real time      0.0051
    OFIELD:  cpu time      0.0001: real time      0.0001

  FORCE on cell =-STRESS in cart. coord.  units (eV):
  Direction    XX          YY          ZZ          XY          YZ          ZX
  --------------------------------------------------------------------------------------
  Alpha Z    66.99798    66.99798    66.99798
  Ewald   34419.20487 35129.83058-39702.47554    -0.00000     0.00022     0.12264
  Hartree 36214.25022 37005.13216-34721.28209    -0.00000     0.00009     0.01884
  E(xc)    -502.18643  -501.62700  -503.94800     0.00000    -0.00000    -0.00157
  Local  -73071.86075-74589.69582 71952.28407     0.00000    -0.00028    -0.13563
  n-local  1330.07767  1333.23122  1352.99359    -0.02530    -0.00005     0.01415
  augment   752.38618   771.40729   772.09604    -0.00000    -0.00000    -0.00586
  Kinetic  1217.58710  1222.39788  1220.84671     0.08731     0.00003     0.00333
  Fock     -436.83555  -447.05980  -448.99834    -0.01108    -0.00001     0.00116
  -------------------------------------------------------------------------------------
  Total     -10.37869    -9.38551   -11.48558     0.00000    -0.00000     0.01706
  in kB     -10.03577    -9.07541   -11.10609     0.00000    -0.00000     0.01649
  external pressure =      -10.07 kB  Pullay stress =        0.00 kB


 VOLUME and BASIS-vectors are now :
 -----------------------------------------------------------------------------
  energy-cutoff  :      303.22
  volume of cell :     1656.92
      direct lattice vectors                 reciprocal lattice vectors
    17.803673428  0.000000000  0.000000000     0.056168184  0.000000000  0.000000000
     0.000000000  3.717366373  0.000000000     0.000000000  0.269007652 -0.000000000
     0.000000000  0.000000000 25.035562452     0.000000000  0.000000000  0.039943181

  length of vectors
    17.803673428  3.717366373 25.035562452     0.056168184  0.269007652  0.039943181


 FORCES acting on ions
    electron-ion (+dipol)            ewald-force                    non-local-force                 convergence-correction
 -----------------------------------------------------------------------------------------------
   -.109E+03 0.178E-04 0.500E+02   0.108E+03 -.388E-04 -.495E+02   0.593E+00 -.274E-16 -.451E+00   -.202E-03 0.681E-07 0.223E-03
   -.109E+03 -.235E-04 -.501E+02   0.108E+03 0.388E-04 0.496E+02   0.591E+00 0.274E-16 0.450E+00   -.188E-03 0.583E-07 -.224E-03
   0.109E+03 0.177E-04 0.501E+02   -.108E+03 -.388E-04 -.496E+02   -.602E+00 -.275E-16 -.454E+00   0.202E-03 0.110E-06 0.220E-03
   0.109E+03 -.234E-04 -.500E+02   -.109E+03 0.388E-04 0.495E+02   -.607E+00 0.275E-16 0.455E+00   0.195E-03 -.513E-08 -.222E-03
   0.813E+02 0.417E-04 0.563E+03   -.815E+02 -.961E-04 -.562E+03   0.112E+00 -.599E-16 -.100E+01   0.816E-03 0.218E-06 0.748E-02
   0.812E+02 -.440E-04 -.563E+03   -.814E+02 0.961E-04 0.562E+03   0.111E+00 0.599E-16 0.100E+01   0.812E-03 -.327E-06 -.747E-02
   -.810E+02 0.416E-04 0.562E+03   0.813E+02 -.961E-04 -.562E+03   -.120E+00 -.599E-16 -.100E+01   -.822E-03 0.135E-06 0.745E-02
   -.809E+02 -.440E-04 -.563E+03   0.812E+02 0.961E-04 0.562E+03   -.122E+00 0.598E-16 0.998E+00   -.826E-03 -.457E-06 -.746E-02
   -.540E+00 0.488E-05 0.492E+02   0.526E+00 -.448E-04 -.488E+02   0.210E-01 -.234E-16 -.390E+00   -.586E-04 -.307E-06 0.191E-02
   -.392E+00 0.537E-05 -.488E+02   0.381E+00 0.448E-04 0.484E+02   0.120E-01 0.235E-16 0.392E+00   -.407E-04 -.423E-06 -.191E-02
   -.105E+03 0.579E-04 0.708E+03   0.107E+03 0.334E-04 -.716E+03   -.138E+01 0.473E-15 0.790E+01   -.840E-04 -.104E-06 -.217E-02
   -.105E+03 0.200E-04 -.708E+03   0.107E+03 -.334E-04 0.716E+03   -.138E+01 -.473E-15 -.790E+01   -.781E-04 -.114E-07 0.217E-02
   0.538E+02 0.244E-05 0.658E+03   -.550E+02 -.899E-05 -.664E+03   0.124E+01 0.342E-15 0.571E+01   -.407E-03 -.354E-07 -.257E-02
   0.537E+02 0.853E-04 -.659E+03   -.549E+02 0.899E-05 0.664E+03   0.125E+01 -.342E-15 -.571E+01   -.397E-03 -.242E-06 0.258E-02
   0.105E+03 0.580E-04 0.708E+03   -.107E+03 0.335E-04 -.716E+03   0.137E+01 0.473E-15 0.790E+01   0.854E-04 -.159E-06 -.217E-02
   0.106E+03 0.200E-04 -.708E+03   -.107E+03 -.334E-04 0.716E+03   0.137E+01 -.473E-15 -.790E+01   0.843E-04 0.995E-07 0.217E-02
   -.539E+02 0.248E-05 0.659E+03   0.551E+02 -.898E-05 -.664E+03   -.124E+01 0.342E-15 0.572E+01   0.404E-03 -.154E-06 -.257E-02
   -.539E+02 0.853E-04 -.659E+03   0.551E+02 0.899E-05 0.664E+03   -.124E+01 -.342E-15 -.572E+01   0.390E-03 -.153E-06 0.258E-02
   -.132E+00 0.195E-04 0.600E+03   0.131E+00 -.293E-04 -.605E+03   -.686E-03 0.283E-15 0.472E+01   -.290E-05 0.689E-07 -.254E-02
   -.173E+00 0.650E-04 -.600E+03   0.170E+00 0.293E-04 0.604E+03   0.327E-02 -.282E-15 -.471E+01   -.253E-06 -.382E-07 0.253E-02
 -----------------------------------------------------------------------------------------------
   -.691E-02 0.410E-03 -.527E-02   -.799E-13 0.631E-13 -.227E-12   -.730E-02 0.392E-18 0.639E-02   -.116E-03 -.166E-05 -.891E-05
 
 
 POSITION                                       TOTAL-FORCE (eV/Angst)
 -----------------------------------------------------------------------------------
     15.51898      0.92934     12.44182        -0.005106      0.000000      0.021126
      6.61685      2.78802     12.59408        -0.008046     -0.000000     -0.023348
      2.29925      0.92934     12.44144         0.006199      0.000000      0.020417
     11.20189      2.78802     12.59429         0.001041     -0.000000     -0.019578
     12.97833      0.92934     11.77745         0.001715     -0.000000     -0.119581
      4.07598      2.78802     13.25903         0.001213      0.000000      0.117762
      4.83946      0.92934     11.77709        -0.004041     -0.000000     -0.118146
     13.74157      2.78802     13.25919        -0.003832      0.000000      0.117398
      8.90704      0.92934     12.37051         0.005395     -0.000000     -0.087054
      0.00563      2.78802     12.66458         0.001769      0.000000      0.086848
     14.31190      2.78802     10.58080        -0.051451      0.000000      0.645704
      5.40956      0.92934     14.45539        -0.049080     -0.000000     -0.646028
     10.69318      0.92934     10.56251         0.127069      0.000000      0.659639
      1.79052      2.78802     14.47337         0.130546     -0.000000     -0.660682
      3.50692      2.78802     10.58040         0.044467      0.000000      0.646926
     12.40877      0.92934     14.45569         0.045371     -0.000000     -0.646581
      7.12347      0.92934     10.56106        -0.121889      0.000000      0.666690
     16.02572      2.78802     14.47455        -0.121469     -0.000000     -0.665683
      0.00715      0.92934     10.89807        -0.000975      0.000000      0.529535
      8.90899      2.78802     14.13663         0.001103     -0.000000     -0.525363
 -----------------------------------------------------------------------------------
    total drift:                               -0.010162      0.000408      0.001100


--------------------------------------------------------------------------------------------------------



  FREE ENERGIE OF THE ION-ELECTRON SYSTEM (eV)
  ---------------------------------------------------
  free  energy   TOTEN  =      -141.87275008 eV

  energy  without entropy=     -141.87275008  energy(sigma->0) =     -141.87275008
 


--------------------------------------------------------------------------------------------------------


    POTLOK:  cpu time     14.9680: real time     14.9751


--------------------------------------------------------------------------------------------------------


     LOOP+:  cpu time 964502.7149: real time 967420.5324
    4ORBIT:  cpu time      0.0000: real time      0.0000



 total charge

# of ion       s       p       d       tot
------------------------------------------
    1        1.028   0.692   3.167   4.887
    2        1.028   0.692   3.167   4.887
    3        1.028   0.692   3.167   4.887
    4        1.028   0.692   3.167   4.887
    5        0.437   0.520   8.550   9.506
    6        0.436   0.520   8.550   9.506
    7        0.437   0.520   8.550   9.506
    8        0.437   0.520   8.550   9.507
    9        0.391   0.462   8.540   9.393
   10        0.391   0.462   8.540   9.393
   11        1.337   2.094   0.061   3.491
   12        1.337   2.094   0.061   3.491
   13        1.340   2.120   0.062   3.522
   14        1.340   2.120   0.062   3.522
   15        1.337   2.094   0.061   3.491
   16        1.337   2.094   0.061   3.491
   17        1.340   2.120   0.062   3.522
   18        1.340   2.120   0.062   3.522
   19        1.330   2.158   0.059   3.547
   20        1.330   2.159   0.059   3.548
--------------------------------------------------
tot         20.011  26.943  64.553 111.508
 

 total amount of memory used by VASP MPI-rank0   628141. kBytes
=======================================================================

   base      :      30000. kBytes
   nonlr-proj:      22675. kBytes
   fftplans  :      56046. kBytes
   grid      :      38983. kBytes
   one-center:        311. kBytes
   HF        :        194. kBytes
   wavefun   :     155381. kBytes
   fock_wrk  :     324551. kBytes
 
  
  
 General timing and accounting informations for this job:
 ========================================================
  
                  Total CPU time used (sec):   964541.500
                            User time (sec):   962603.997
                          System time (sec):     1937.473
                         Elapsed time (sec):   967476.060
  
                   Maximum memory used (kb):     1855992.
                   Average memory used (kb):          N/A
  
                          Minor page faults:      6771577
                          Major page faults:         6852
                 Voluntary context switches:        11102
