PROCAR new format
# of k-points:   24         # of bands:  160         # of ions:   20

 k-point     1 :    0.00000000 0.00000000 0.00000000     weight = 0.01515152

band     1 # energy  -15.55812606 # occ.  2.00000000
 
ion      s      p      d    tot
    1  0.032  0.000  0.000  0.032
    2  0.032  0.000  0.000  0.032
    3  0.032  0.000  0.000  0.032
    4  0.032  0.000  0.000  0.032
    5  0.014  0.000  0.000  0.014
    6  0.014  0.000  0.000  0.014
    7  0.014  0.000  0.000  0.014
    8  0.014  0.000  0.000  0.014
    9  0.010  0.000  0.000  0.010
   10  0.010  0.000  0.000  0.010
   11  0.061  0.001  0.000  0.062
   12  0.060  0.001  0.000  0.061
   13  0.047  0.001  0.000  0.048
   14  0.047  0.001  0.000  0.048
   15  0.060  0.001  0.000  0.062
   16  0.061  0.001  0.000  0.062
   17  0.047  0.001  0.000  0.048
   18  0.047  0.001  0.000  0.048
   19  0.040  0.001  0.000  0.041
   20  0.040  0.001  0.000  0.041
tot    0.714  0.011  0.002  0.726
 
band     2 # energy  -15.26491371 # occ.  2.00000000
 
ion      s      p      d    tot
    1  0.027  0.001  0.002  0.030
    2  0.027  0.001  0.002  0.030
    3  0.027  0.001  0.002  0.030
    4  0.027  0.001  0.002  0.030
    5  0.019  0.000  0.000  0.019
    6  0.019  0.000  0.000  0.019
    7  0.019  0.000  0.000  0.019
    8  0.019  0.000  0.000  0.019
    9  0.000  0.001  0.000  0.002
   10  0.000  0.001  0.000  0.002
   11  0.096  0.002  0.000  0.098
   12  0.097  0.002  0.000  0.098
   13  0.033  0.001  0.000  0.034
   14  0.033  0.001  0.000  0.035
   15  0.097  0.002  0.000  0.099
   16  0.097  0.002  0.000  0.098
   17  0.034  0.001  0.000  0.035
   18  0.033  0.001  0.000  0.035
   19  0.000  0.000  0.000  0.000
   20  0.000  0.000  0.000  0.000
tot    0.703  0.021  0.009  0.733
 
band     3 # energy  -15.10486595 # occ.  2.00000000
 
ion      s      p      d    tot
    1  0.029  0.001  0.000  0.031
    2  0.029  0.001  0.000  0.031
    3  0.029  0.001  0.000  0.031
    4  0.029  0.001  0.000  0.031
    5  0.000  0.003  0.001  0.003
    6  0.000  0.003  0.001  0.003
    7  0.000  0.003  0.001  0.003
    8  0.000  0.003  0.001  0.003
    9  0.019  0.000  0.000  0.019
   10  0.019  0.000  0.000  0.019
   11  0.022  0.001  0.000  0.023
   12  0.022  0.001  0.000  0.023
   13  0.068  0.001  0.000  0.069
   14  0.068  0.001  0.000  0.069
   15  0.022  0.001  0.000  0.023
   16  0.022  0.001  0.000  0.023
   17  0.068  0.001  0.000  0.069
   18  0.068  0.001  0.000  0.069
   19  0.092  0.001  0.000  0.093
   20  0.092  0.001  0.000  0.093
tot    0.698  0.026  0.004  0.727
 
band     4 # energy  -14.57168219 # occ.  2.00000000
 
ion      s      p      d    tot
    1  0.000  0.008  0.001  0.009
    2  0.000  0.007  0.001  0.008
    3  0.000  0.007  0.001  0.008
    4  0.000  0.008  0.001  0.009
    5  0.004  0.004  0.002  0.010
    6  0.003  0.003  0.001  0.007
    7  0.003  0.003  0.001  0.007
    8  0.004  0.004  0.002  0.010
    9  0.000  0.003  0.001  0.004
   10  0.000  0.003  0.001  0.004
   11  0.097  0.001  0.000  0.097
   12  0.063  0.000  0.000  0.064
   13  0.056  0.000  0.000  0.057
   14  0.066  0.000  0.000  0.066
   15  0.063  0.000  0.000  0.064
   16  0.096  0.000  0.000  0.096
   17  0.065  0.000  0.000  0.065
   18  0.057  0.000  0.000  0.057
   19  0.022  0.000  0.000  0.022
   20  0.022  0.000  0.000  0.022
tot    0.623  0.053  0.010  0.687
 
band     5 # energy  -14.56798503 # occ.  2.00000000
 
ion      s      p      d    tot
    1  0.017  0.001  0.005  0.022
    2  0.017  0.002  0.005  0.024
    3  0.017  0.002  0.005  0.024
    4  0.017  0.001  0.005  0.022
    5  0.001  0.006  0.002  0.009
    6  0.001  0.008  0.002  0.011
    7  0.001  0.008  0.002  0.011
    8  0.001  0.006  0.002  0.009
    9  0.000  0.001  0.000  0.001
   10  0.000  0.001  0.000  0.001
   11  0.117  0.001  0.000  0.118
   12  0.150  0.001  0.000  0.151
   13  0.019  0.001  0.000  0.019
   14  0.009  0.000  0.000  0.010
   15  0.150  0.001  0.000  0.151
   16  0.117  0.001  0.000  0.118
   17  0.010  0.000  0.000  0.010
   18  0.019  0.001  0.000  0.019
   19  0.000  0.001  0.000  0.001
   20  0.000  0.001  0.000  0.001
tot    0.661  0.043  0.028  0.732
 
band     6 # energy  -14.30688552 # occ.  2.00000000
 
ion      s      p      d    tot
    1  0.000  0.008  0.003  0.012
    2  0.000  0.008  0.003  0.012
    3  0.000  0.006  0.003  0.009
    4  0.000  0.007  0.003  0.009
    5  0.001  0.002  0.002  0.005
    6  0.001  0.002  0.002  0.005
    7  0.001  0.002  0.002  0.005
    8  0.001  0.002  0.002  0.005
    9  0.001  0.006  0.002  0.008
   10  0.001  0.006  0.002  0.008
   11  0.037  0.000  0.000  0.037
   12  0.037  0.000  0.000  0.037
   13  0.084  0.001  0.000  0.085
   14  0.084  0.001  0.000  0.084
   15  0.031  0.000  0.000  0.031
   16  0.031  0.000  0.000  0.031
   17  0.114  0.001  0.000  0.115
   18  0.114  0.001  0.000  0.115
   19  0.046  0.000  0.000  0.046
   20  0.045  0.000  0.000  0.046
tot    0.628  0.053  0.024  0.704
 
band     7 # energy  -14.30438792 # occ.  2.00000000
 
ion      s      p      d    tot
    1  0.009  0.006  0.002  0.016
    2  0.009  0.006  0.002  0.016
    3  0.009  0.008  0.002  0.019
    4  0.009  0.007  0.002  0.019
    5  0.003  0.002  0.001  0.007
    6  0.003  0.002  0.001  0.007
    7  0.004  0.002  0.001  0.007
    8  0.004  0.002  0.001  0.007
    9  0.000  0.003  0.003  0.007
   10  0.000  0.003  0.003  0.007
   11  0.012  0.000  0.000  0.013
   12  0.012  0.000  0.000  0.013
   13  0.150  0.002  0.000  0.152
   14  0.150  0.002  0.000  0.152
   15  0.020  0.000  0.000  0.020
   16  0.020  0.000  0.000  0.020
   17  0.119  0.002  0.000  0.121
   18  0.119  0.002  0.000  0.121
   19  0.000  0.000  0.000  0.000
   20  0.000  0.000  0.000  0.000
tot    0.655  0.050  0.019  0.723
 
band     8 # energy  -14.27901038 # occ.  2.00000000
 
ion      s      p      d    tot
    1  0.000  0.007  0.006  0.013
    2  0.000  0.007  0.006  0.013
    3  0.000  0.007  0.006  0.013
    4  0.000  0.007  0.006  0.013
    5  0.005  0.000  0.001  0.006
    6  0.005  0.000  0.001  0.006
    7  0.005  0.001  0.001  0.006
    8  0.005  0.001  0.001  0.006
    9  0.013  0.003  0.002  0.017
   10  0.013  0.003  0.002  0.017
   11  0.045  0.001  0.000  0.046
   12  0.046  0.001  0.000  0.046
   13  0.001  0.000  0.000  0.001
   14  0.001  0.000  0.000  0.001
   15  0.043  0.001  0.000  0.044
   16  0.043  0.001  0.000  0.044
   17  0.001  0.000  0.000  0.001
   18  0.001  0.000  0.000  0.001
   19  0.211  0.002  0.000  0.213
   20  0.212  0.002  0.000  0.214
tot    0.651  0.043  0.030  0.724
 
band     9 # energy  -14.12789190 # occ.  2.00000000
 
ion      s      p      d    tot
    1  0.000  0.003  0.013  0.016
    2  0.000  0.003  0.013  0.016
    3  0.000  0.003  0.013  0.016
    4  0.000  0.003  0.013  0.016
    5  0.000  0.003  0.001  0.004
    6  0.000  0.003  0.001  0.004
    7  0.000  0.003  0.002  0.004
    8  0.000  0.003  0.001  0.004
    9  0.004  0.006  0.003  0.012
   10  0.004  0.006  0.003  0.012
   11  0.049  0.001  0.000  0.050
   12  0.049  0.001  0.000  0.050
   13  0.016  0.000  0.000  0.016
   14  0.016  0.000  0.000  0.016
   15  0.049  0.001  0.000  0.050
   16  0.049  0.001  0.000  0.049
   17  0.016  0.000  0.000  0.016
   18  0.016  0.000  0.000  0.016
   19  0.183  0.001  0.000  0.184
   20  0.183  0.001  0.000  0.184
tot    0.636  0.040  0.062  0.738
 
band    10 # energy  -13.93334540 # occ.  2.00000000
 
ion      s      p      d    tot
    1  0.002  0.008  0.002  0.012
    2  0.002  0.008  0.002  0.012
    3  0.002  0.008  0.002  0.012
    4  0.002  0.008  0.002  0.012
    5  0.001  0.003  0.003  0.006
    6  0.001  0.003  0.003  0.007
    7  0.001  0.003  0.003  0.007
    8  0.001  0.003  0.003  0.006
    9  0.000  0.003  0.003  0.006
   10  0.000  0.003  0.003  0.006
   11  0.042  0.000  0.000  0.042
   12  0.042  0.000  0.000  0.042
   13  0.118  0.001  0.000  0.119
   14  0.119  0.001  0.000  0.120
   15  0.042  0.000  0.000  0.042
   16  0.042  0.000  0.000  0.042
   17  0.118  0.001  0.000  0.119
   18  0.118  0.001  0.000  0.119
   19  0.000  0.000  0.000  0.000
   20  0.000  0.000  0.000  0.000
tot    0.652  0.054  0.025  0.731
 
band    11 # energy   -8.05237099 # occ.  2.00000000
 
ion      s      p      d    tot
    1  0.044  0.004  0.016  0.064
    2  0.043  0.004  0.015  0.063
    3  0.043  0.004  0.015  0.063
    4  0.044  0.004  0.016  0.063
    5  0.039  0.005  0.006  0.050
    6  0.039  0.005  0.006  0.049
    7  0.038  0.005  0.006  0.049
    8  0.039  0.005  0.006  0.050
    9  0.002  0.001  0.008  0.011
   10  0.002  0.001  0.008  0.011
   11  0.016  0.028  0.001  0.044
   12  0.015  0.028  0.000  0.044
   13  0.004  0.015  0.000  0.020
   14  0.004  0.015  0.000  0.020
   15  0.015  0.028  0.000  0.044
   16  0.016  0.028  0.001  0.044
   17  0.004  0.015  0.000  0.020
   18  0.004  0.015  0.000  0.020
   19  0.002  0.009  0.000  0.010
   20  0.002  0.009  0.000  0.010
tot    0.416  0.230  0.104  0.750
 
band    12 # energy   -7.79885554 # occ.  2.00000000
 
ion      s      p      d    tot
    1  0.078  0.001  0.014  0.094
    2  0.086  0.001  0.016  0.103
    3  0.078  0.001  0.014  0.093
    4  0.086  0.001  0.016  0.104
    5  0.009  0.004  0.017  0.031
    6  0.007  0.004  0.017  0.028
    7  0.009  0.004  0.017  0.030
    8  0.007  0.004  0.017  0.028
    9  0.000  0.004  0.014  0.017
   10  0.000  0.003  0.013  0.016
   11  0.001  0.023  0.001  0.025
   12  0.002  0.023  0.001  0.025
   13  0.010  0.011  0.000  0.021
   14  0.009  0.009  0.000  0.018
   15  0.001  0.023  0.001  0.025
   16  0.002  0.023  0.001  0.025
   17  0.010  0.011  0.000  0.021
   18  0.009  0.010  0.000  0.019
   19  0.000  0.042  0.001  0.042
   20  0.000  0.043  0.001  0.044
tot    0.404  0.246  0.160  0.810
 
band    13 # energy   -7.78817410 # occ.  2.00000000
 
ion      s      p      d    tot
    1  0.049  0.005  0.017  0.070
    2  0.041  0.005  0.015  0.062
    3  0.050  0.005  0.017  0.071
    4  0.041  0.005  0.015  0.061
    5  0.042  0.007  0.007  0.056
    6  0.044  0.007  0.007  0.059
    7  0.042  0.007  0.007  0.056
    8  0.044  0.007  0.007  0.058
    9  0.000  0.001  0.002  0.003
   10  0.000  0.001  0.002  0.004
   11  0.018  0.034  0.001  0.053
   12  0.018  0.035  0.001  0.053
   13  0.005  0.008  0.000  0.014
   14  0.006  0.010  0.000  0.016
   15  0.018  0.035  0.001  0.054
   16  0.018  0.035  0.001  0.053
   17  0.005  0.008  0.000  0.014
   18  0.006  0.010  0.000  0.016
   19  0.000  0.002  0.000  0.003
   20  0.000  0.001  0.000  0.002
tot    0.448  0.228  0.102  0.778
 
band    14 # energy   -7.69234540 # occ.  2.00000000
 
ion      s      p      d    tot
    1  0.060  0.002  0.021  0.083
    2  0.060  0.002  0.021  0.083
    3  0.060  0.002  0.021  0.084
    4  0.060  0.002  0.021  0.083
    5  0.013  0.007  0.006  0.026
    6  0.013  0.007  0.006  0.026
    7  0.013  0.007  0.006  0.027
    8  0.013  0.007  0.006  0.026
    9  0.000  0.002  0.018  0.020
   10  0.000  0.002  0.018  0.020
   11  0.001  0.019  0.001  0.020
   12  0.001  0.019  0.001  0.020
   13  0.005  0.039  0.001  0.045
   14  0.005  0.039  0.001  0.046
   15  0.001  0.019  0.001  0.020
   16  0.001  0.019  0.001  0.020
   17  0.005  0.039  0.001  0.046
   18  0.005  0.039  0.001  0.045
   19  0.003  0.000  0.000  0.004
   20  0.003  0.000  0.000  0.004
tot    0.324  0.273  0.150  0.748
 
band    15 # energy   -7.40953005 # occ.  2.00000000
 
ion      s      p      d    tot
    1  0.044  0.010  0.013  0.067
    2  0.038  0.009  0.010  0.057
    3  0.038  0.009  0.010  0.057
    4  0.043  0.010  0.013  0.066
    5  0.011  0.002  0.032  0.044
    6  0.009  0.001  0.026  0.036
    7  0.009  0.002  0.026  0.036
    8  0.011  0.002  0.032  0.044
    9  0.000  0.008  0.001  0.009
   10  0.000  0.008  0.001  0.009
   11  0.000  0.036  0.001  0.036
   12  0.000  0.030  0.001  0.031
   13  0.001  0.015  0.001  0.016
   14  0.001  0.011  0.000  0.012
   15  0.000  0.030  0.001  0.031
   16  0.000  0.036  0.001  0.036
   17  0.001  0.011  0.000  0.012
   18  0.001  0.015  0.001  0.017
   19  0.000  0.031  0.000  0.031
   20  0.000  0.031  0.000  0.031
tot    0.208  0.307  0.168  0.682
 
band    16 # energy   -7.40261760 # occ.  2.00000000
 
ion      s      p      d    tot
    1  0.015  0.004  0.023  0.041
    2  0.020  0.005  0.025  0.051
    3  0.021  0.005  0.025  0.051
    4  0.015  0.004  0.022  0.041
    5  0.008  0.000  0.028  0.037
    6  0.011  0.001  0.034  0.045
    7  0.011  0.001  0.034  0.045
    8  0.009  0.000  0.028  0.037
    9  0.025  0.002  0.007  0.035
   10  0.025  0.002  0.007  0.035
   11  0.000  0.017  0.001  0.018
   12  0.000  0.023  0.001  0.023
   13  0.003  0.031  0.001  0.034
   14  0.003  0.035  0.001  0.039
   15  0.000  0.023  0.001  0.024
   16  0.000  0.017  0.001  0.018
   17  0.003  0.035  0.001  0.039
   18  0.003  0.031  0.001  0.034
   19  0.007  0.005  0.000  0.012
   20  0.007  0.005  0.000  0.012
tot    0.186  0.246  0.238  0.670
 
band    17 # energy   -7.23478816 # occ.  2.00000000
 
ion      s      p      d    tot
    1  0.016  0.003  0.026  0.045
    2  0.016  0.003  0.026  0.045
    3  0.016  0.003  0.026  0.045
    4  0.017  0.003  0.026  0.046
    5  0.002  0.002  0.017  0.020
    6  0.002  0.002  0.017  0.020
    7  0.002  0.002  0.017  0.020
    8  0.002  0.002  0.017  0.020
    9  0.051  0.002  0.005  0.058
   10  0.051  0.002  0.005  0.058
   11  0.002  0.007  0.000  0.008
   12  0.002  0.006  0.000  0.008
   13  0.003  0.034  0.001  0.038
   14  0.003  0.033  0.001  0.038
   15  0.002  0.006  0.000  0.008
   16  0.002  0.006  0.000  0.008
   17  0.003  0.033  0.001  0.037
   18  0.003  0.033  0.001  0.037
   19  0.008  0.040  0.001  0.049
   20  0.008  0.040  0.001  0.049
tot    0.212  0.261  0.186  0.659
 
band    18 # energy   -6.71852362 # occ.  2.00000000
 
ion      s      p      d    tot
    1  0.003  0.002  0.037  0.042
    2  0.003  0.002  0.037  0.042
    3  0.003  0.002  0.037  0.042
    4  0.003  0.002  0.037  0.042
    5  0.000  0.008  0.022  0.029
    6  0.000  0.007  0.022  0.029
    7  0.000  0.008  0.022  0.029
    8  0.000  0.008  0.022  0.029
    9  0.023  0.002  0.029  0.053
   10  0.023  0.002  0.029  0.053
   11  0.000  0.008  0.000  0.009
   12  0.000  0.008  0.000  0.009
   13  0.000  0.038  0.001  0.039
   14  0.000  0.038  0.001  0.039
   15  0.000  0.008  0.000  0.009
   16  0.000  0.008  0.000  0.009
   17  0.000  0.038  0.001  0.039
   18  0.000  0.038  0.001  0.039
   19  0.002  0.035  0.001  0.038
   20  0.002  0.035  0.001  0.038
tot    0.067  0.296  0.297  0.660
 
band    19 # energy   -6.61548140 # occ.  2.00000000
 
ion      s      p      d    tot
    1  0.006  0.001  0.038  0.045
    2  0.006  0.001  0.038  0.045
    3  0.006  0.001  0.038  0.045
    4  0.006  0.001  0.038  0.045
    5  0.000  0.005  0.064  0.070
    6  0.000  0.005  0.063  0.069
    7  0.000  0.005  0.063  0.069
    8  0.000  0.005  0.064  0.070
    9  0.000  0.001  0.004  0.006
   10  0.000  0.001  0.004  0.006
   11  0.003  0.039  0.001  0.043
   12  0.003  0.039  0.001  0.043
   13  0.002  0.010  0.000  0.012
   14  0.002  0.010  0.000  0.012
   15  0.003  0.039  0.001  0.043
   16  0.003  0.039  0.001  0.043
   17  0.002  0.010  0.000  0.012
   18  0.002  0.010  0.000  0.012
   19  0.000  0.015  0.000  0.015
   20  0.000  0.015  0.000  0.015
tot    0.043  0.254  0.421  0.718
 
band    20 # energy   -6.26660820 # occ.  2.00000000
 
ion      s      p      d    tot
    1  0.005  0.001  0.013  0.018
    2  0.005  0.001  0.013  0.018
    3  0.005  0.000  0.013  0.018
    4  0.005  0.001  0.013  0.018
    5  0.000  0.003  0.126  0.129
    6  0.000  0.003  0.126  0.129
    7  0.000  0.003  0.126  0.129
    8  0.000  0.003  0.126  0.129
    9  0.001  0.000  0.002  0.003
   10  0.001  0.000  0.002  0.003
   11  0.002  0.036  0.001  0.039
   12  0.002  0.036  0.001  0.039
   13  0.000  0.001  0.000  0.001
   14  0.000  0.001  0.000  0.001
   15  0.002  0.036  0.001  0.040
   16  0.002  0.036  0.001  0.039
   17  0.000  0.001  0.000  0.001
   18  0.000  0.001  0.000  0.001
   19  0.004  0.005  0.000  0.010
   20  0.004  0.005  0.000  0.009
tot    0.041  0.171  0.563  0.775
 
band    21 # energy   -6.22116684 # occ.  2.00000000
 
ion      s      p      d    tot
    1  0.002  0.005  0.055  0.062
    2  0.002  0.005  0.055  0.062
    3  0.002  0.005  0.055  0.062
    4  0.002  0.005  0.055  0.062
    5  0.000  0.001  0.032  0.032
    6  0.000  0.001  0.032  0.032
    7  0.000  0.001  0.032  0.033
    8  0.000  0.001  0.032  0.033
    9  0.000  0.000  0.058  0.058
   10  0.000  0.000  0.058  0.058
   11  0.000  0.005  0.001  0.006
   12  0.000  0.005  0.001  0.006
   13  0.000  0.015  0.000  0.015
   14  0.000  0.015  0.000  0.015
   15  0.000  0.005  0.001  0.006
   16  0.000  0.005  0.001  0.006
   17  0.000  0.015  0.000  0.015
   18  0.000  0.015  0.000  0.015
   19  0.000  0.085  0.001  0.086
   20  0.000  0.085  0.001  0.086
tot    0.011  0.269  0.470  0.750
 
band    22 # energy   -5.87845042 # occ.  2.00000000
 
ion      s      p      d    tot
    1  0.004  0.011  0.018  0.033
    2  0.004  0.011  0.017  0.032
    3  0.004  0.011  0.017  0.032
    4  0.004  0.011  0.018  0.033
    5  0.000  0.002  0.103  0.106
    6  0.000  0.002  0.100  0.102
    7  0.000  0.002  0.100  0.102
    8  0.000  0.002  0.103  0.106
    9  0.006  0.001  0.018  0.025
   10  0.006  0.001  0.018  0.025
   11  0.000  0.021  0.001  0.022
   12  0.000  0.021  0.001  0.022
   13  0.000  0.024  0.000  0.024
   14  0.000  0.023  0.000  0.024
   15  0.000  0.021  0.001  0.021
   16  0.000  0.021  0.001  0.022
   17  0.000  0.023  0.000  0.024
   18  0.000  0.023  0.000  0.024
   19  0.000  0.000  0.000  0.001
   20  0.000  0.000  0.000  0.001
tot    0.030  0.235  0.516  0.781
 
band    23 # energy   -5.81928278 # occ.  2.00000000
 
ion      s      p      d    tot
    1  0.002  0.006  0.037  0.045
    2  0.002  0.006  0.038  0.046
    3  0.002  0.006  0.038  0.046
    4  0.002  0.006  0.037  0.045
    5  0.004  0.001  0.127  0.132
    6  0.004  0.001  0.131  0.135
    7  0.004  0.001  0.130  0.135
    8  0.004  0.001  0.127  0.131
    9  0.000  0.000  0.000  0.000
   10  0.000  0.000  0.000  0.000
   11  0.001  0.009  0.000  0.010
   12  0.001  0.010  0.000  0.011
   13  0.002  0.022  0.001  0.025
   14  0.002  0.023  0.001  0.025
   15  0.001  0.010  0.000  0.011
   16  0.001  0.009  0.000  0.010
   17  0.002  0.023  0.001  0.025
   18  0.002  0.022  0.001  0.024
   19  0.000  0.002  0.000  0.002
   20  0.000  0.002  0.000  0.002
tot    0.033  0.158  0.670  0.860
 
band    24 # energy   -5.77934324 # occ.  2.00000000
 
ion      s      p      d    tot
    1  0.000  0.004  0.042  0.046
    2  0.000  0.003  0.038  0.041
    3  0.000  0.003  0.038  0.041
    4  0.000  0.004  0.042  0.046
    5  0.000  0.000  0.152  0.152
    6  0.000  0.000  0.135  0.135
    7  0.000  0.000  0.135  0.135
    8  0.000  0.000  0.152  0.153
    9  0.000  0.000  0.010  0.010
   10  0.000  0.000  0.010  0.010
   11  0.000  0.033  0.002  0.035
   12  0.000  0.029  0.002  0.031
   13  0.000  0.000  0.000  0.000
   14  0.000  0.000  0.000  0.000
   15  0.000  0.029  0.002  0.031
   16  0.000  0.033  0.002  0.035
   17  0.000  0.000  0.000  0.000
   18  0.000  0.000  0.000  0.000
   19  0.000  0.000  0.000  0.000
   20  0.000  0.000  0.000  0.000
tot    0.000  0.141  0.762  0.903
 
band    25 # energy   -5.75237981 # occ.  2.00000000
 
ion      s      p      d    tot
    1  0.000  0.004  0.034  0.038
    2  0.000  0.004  0.039  0.043
    3  0.000  0.004  0.039  0.044
    4  0.000  0.004  0.035  0.039
    5  0.000  0.000  0.141  0.142
    6  0.000  0.000  0.158  0.159
    7  0.000  0.000  0.159  0.160
    8  0.000  0.000  0.142  0.142
    9  0.000  0.001  0.000  0.001
   10  0.000  0.001  0.000  0.001
   11  0.000  0.029  0.002  0.031
   12  0.000  0.033  0.002  0.035
   13  0.000  0.000  0.000  0.000
   14  0.000  0.000  0.000  0.000
   15  0.000  0.033  0.002  0.035
   16  0.000  0.029  0.002  0.031
   17  0.000  0.000  0.000  0.000
   18  0.000  0.000  0.000  0.000
   19  0.000  0.001  0.000  0.001
   20  0.000  0.001  0.000  0.001
tot    0.000  0.146  0.757  0.903
 
band    26 # energy   -5.66859659 # occ.  2.00000000
 
ion      s      p      d    tot
    1  0.006  0.003  0.011  0.020
    2  0.006  0.003  0.011  0.020
    3  0.007  0.003  0.011  0.020
    4  0.006  0.003  0.011  0.020
    5  0.001  0.000  0.075  0.077
    6  0.001  0.000  0.075  0.076
    7  0.001  0.000  0.076  0.078
    8  0.001  0.000  0.076  0.078
    9  0.000  0.007  0.078  0.085
   10  0.000  0.007  0.078  0.085
   11  0.000  0.004  0.000  0.005
   12  0.000  0.004  0.000  0.005
   13  0.000  0.042  0.001  0.043
   14  0.000  0.042  0.001  0.043
   15  0.000  0.005  0.000  0.005
   16  0.000  0.005  0.000  0.005
   17  0.000  0.043  0.001  0.044
   18  0.000  0.043  0.001  0.044
   19  0.000  0.007  0.000  0.007
   20  0.000  0.007  0.000  0.007
tot    0.031  0.229  0.508  0.768
 
band    27 # energy   -5.60083189 # occ.  2.00000000
 
ion      s      p      d    tot
    1  0.002  0.009  0.004  0.014
    2  0.002  0.009  0.004  0.014
    3  0.001  0.009  0.004  0.014
    4  0.001  0.009  0.004  0.014
    5  0.004  0.007  0.016  0.026
    6  0.004  0.007  0.016  0.027
    7  0.004  0.007  0.015  0.026
    8  0.004  0.007  0.015  0.026
    9  0.006  0.003  0.086  0.096
   10  0.006  0.003  0.088  0.098
   11  0.002  0.023  0.000  0.025
   12  0.002  0.023  0.000  0.025
   13  0.000  0.020  0.000  0.020
   14  0.000  0.021  0.000  0.021
   15  0.002  0.023  0.000  0.025
   16  0.002  0.022  0.000  0.024
   17  0.000  0.020  0.000  0.020
   18  0.000  0.020  0.000  0.020
   19  0.004  0.061  0.001  0.066
   20  0.004  0.060  0.001  0.065
tot    0.050  0.364  0.254  0.668
 
band    28 # energy   -5.55651000 # occ.  2.00000000
 
ion      s      p      d    tot
    1  0.000  0.004  0.010  0.013
    2  0.000  0.004  0.010  0.013
    3  0.000  0.004  0.010  0.013
    4  0.000  0.004  0.010  0.013
    5  0.000  0.000  0.036  0.036
    6  0.000  0.000  0.036  0.036
    7  0.000  0.000  0.036  0.036
    8  0.000  0.000  0.035  0.035
    9  0.001  0.005  0.133  0.139
   10  0.001  0.005  0.131  0.137
   11  0.001  0.005  0.000  0.006
   12  0.001  0.005  0.000  0.006
   13  0.000  0.024  0.000  0.025
   14  0.000  0.024  0.000  0.024
   15  0.001  0.005  0.000  0.006
   16  0.001  0.005  0.000  0.006
   17  0.000  0.024  0.000  0.025
   18  0.000  0.024  0.000  0.024
   19  0.001  0.064  0.001  0.066
   20  0.001  0.065  0.001  0.067
tot    0.008  0.273  0.449  0.729
 
band    29 # energy   -5.49438137 # occ.  2.00000000
 
ion      s      p      d    tot
    1  0.000  0.000  0.056  0.056
    2  0.000  0.000  0.021  0.021
    3  0.000  0.000  0.021  0.021
    4  0.000  0.000  0.056  0.056
    5  0.000  0.009  0.222  0.231
    6  0.000  0.003  0.080  0.083
    7  0.000  0.003  0.080  0.083
    8  0.000  0.009  0.222  0.231
    9  0.000  0.000  0.013  0.013
   10  0.000  0.000  0.013  0.013
   11  0.000  0.018  0.002  0.020
   12  0.000  0.006  0.001  0.007
   13  0.000  0.014  0.001  0.015
   14  0.000  0.005  0.000  0.005
   15  0.000  0.006  0.001  0.007
   16  0.000  0.018  0.002  0.020
   17  0.000  0.005  0.000  0.005
   18  0.000  0.014  0.001  0.015
   19  0.000  0.000  0.000  0.000
   20  0.000  0.000  0.000  0.000
tot    0.000  0.111  0.791  0.903
 
band    30 # energy   -5.49105605 # occ.  2.00000000
 
ion      s      p      d    tot
    1  0.000  0.000  0.020  0.020
    2  0.000  0.000  0.055  0.055
    3  0.000  0.000  0.055  0.055
    4  0.000  0.000  0.020  0.020
    5  0.000  0.003  0.079  0.081
    6  0.000  0.008  0.221  0.229
    7  0.000  0.008  0.221  0.229
    8  0.000  0.003  0.079  0.081
    9  0.000  0.000  0.011  0.011
   10  0.000  0.000  0.011  0.011
   11  0.000  0.007  0.001  0.007
   12  0.000  0.019  0.002  0.020
   13  0.000  0.006  0.000  0.006
   14  0.000  0.016  0.001  0.017
   15  0.000  0.018  0.002  0.020
   16  0.000  0.007  0.001  0.007
   17  0.000  0.016  0.001  0.017
   18  0.000  0.006  0.000  0.006
   19  0.000  0.001  0.000  0.002
   20  0.000  0.001  0.000  0.002
tot    0.000  0.119  0.777  0.896
 
band    31 # energy   -4.92306179 # occ.  2.00000000
 
ion      s      p      d    tot
    1  0.000  0.000  0.046  0.046
    2  0.000  0.000  0.045  0.046
    3  0.000  0.000  0.046  0.046
    4  0.000  0.000  0.046  0.046
    5  0.000  0.002  0.024  0.026
    6  0.000  0.002  0.023  0.026
    7  0.000  0.002  0.023  0.026
    8  0.000  0.002  0.023  0.026
    9  0.000  0.001  0.175  0.176
   10  0.000  0.001  0.176  0.177
   11  0.000  0.007  0.000  0.007
   12  0.000  0.007  0.000  0.007
   13  0.000  0.021  0.001  0.022
   14  0.000  0.021  0.001  0.022
   15  0.000  0.007  0.000  0.007
   16  0.000  0.007  0.000  0.007
   17  0.000  0.021  0.001  0.022
   18  0.000  0.021  0.001  0.022
   19  0.000  0.042  0.002  0.043
   20  0.000  0.041  0.002  0.043
tot    0.000  0.209  0.636  0.845
 
band    32 # energy   -4.91428523 # occ.  2.00000000
 
ion      s      p      d    tot
    1  0.000  0.005  0.015  0.020
    2  0.000  0.005  0.015  0.020
    3  0.000  0.005  0.015  0.020
    4  0.000  0.005  0.015  0.020
    5  0.000  0.011  0.069  0.080
    6  0.000  0.011  0.069  0.080
    7  0.000  0.011  0.068  0.079
    8  0.000  0.011  0.069  0.080
    9  0.000  0.005  0.046  0.050
   10  0.000  0.005  0.046  0.050
   11  0.000  0.004  0.000  0.004
   12  0.000  0.004  0.000  0.004
   13  0.002  0.051  0.002  0.054
   14  0.002  0.051  0.002  0.054
   15  0.000  0.004  0.000  0.005
   16  0.000  0.004  0.000  0.004
   17  0.002  0.051  0.002  0.054
   18  0.002  0.051  0.002  0.054
   19  0.000  0.014  0.000  0.014
   20  0.000  0.014  0.000  0.015
tot    0.009  0.319  0.434  0.762
 
band    33 # energy   -4.82942345 # occ.  2.00000000
 
ion      s      p      d    tot
    1  0.000  0.000  0.029  0.029
    2  0.000  0.000  0.029  0.029
    3  0.000  0.000  0.028  0.029
    4  0.000  0.000  0.029  0.029
    5  0.000  0.002  0.078  0.080
    6  0.000  0.002  0.078  0.080
    7  0.000  0.002  0.078  0.080
    8  0.000  0.002  0.078  0.080
    9  0.000  0.003  0.161  0.165
   10  0.000  0.003  0.160  0.163
   11  0.000  0.004  0.000  0.004
   12  0.000  0.003  0.000  0.004
   13  0.000  0.004  0.000  0.005
   14  0.000  0.004  0.000  0.004
   15  0.000  0.003  0.000  0.003
   16  0.000  0.004  0.000  0.004
   17  0.000  0.004  0.000  0.005
   18  0.000  0.004  0.000  0.005
   19  0.000  0.046  0.002  0.048
   20  0.000  0.046  0.002  0.048
tot    0.000  0.138  0.753  0.892
 
band    34 # energy   -4.82074571 # occ.  2.00000000
 
ion      s      p      d    tot
    1  0.001  0.027  0.010  0.037
    2  0.001  0.026  0.010  0.037
    3  0.001  0.027  0.010  0.038
    4  0.001  0.027  0.010  0.037
    5  0.006  0.006  0.024  0.037
    6  0.006  0.006  0.023  0.036
    7  0.006  0.006  0.027  0.039
    8  0.006  0.006  0.026  0.038
    9  0.000  0.013  0.000  0.013
   10  0.000  0.013  0.000  0.013
   11  0.003  0.011  0.001  0.015
   12  0.003  0.011  0.001  0.015
   13  0.001  0.023  0.000  0.024
   14  0.001  0.024  0.000  0.025
   15  0.003  0.012  0.001  0.015
   16  0.003  0.012  0.001  0.015
   17  0.001  0.022  0.000  0.024
   18  0.001  0.023  0.000  0.024
   19  0.000  0.097  0.001  0.098
   20  0.000  0.096  0.001  0.097
tot    0.043  0.487  0.147  0.677
 
band    35 # energy   -4.75412740 # occ.  2.00000000
 
ion      s      p      d    tot
    1  0.000  0.006  0.004  0.011
    2  0.000  0.006  0.004  0.010
    3  0.000  0.006  0.004  0.010
    4  0.000  0.006  0.004  0.010
    5  0.001  0.000  0.092  0.093
    6  0.001  0.000  0.092  0.093
    7  0.001  0.000  0.090  0.091
    8  0.001  0.000  0.090  0.091
    9  0.009  0.002  0.099  0.110
   10  0.009  0.002  0.099  0.110
   11  0.001  0.015  0.001  0.017
   12  0.001  0.015  0.001  0.016
   13  0.001  0.025  0.000  0.027
   14  0.001  0.025  0.000  0.026
   15  0.001  0.014  0.001  0.016
   16  0.001  0.015  0.001  0.016
   17  0.001  0.026  0.000  0.027
   18  0.001  0.026  0.000  0.027
   19  0.000  0.002  0.000  0.002
   20  0.000  0.002  0.000  0.002
tot    0.030  0.195  0.583  0.808
 
band    36 # energy   -4.58531824 # occ.  2.00000000
 
ion      s      p      d    tot
    1  0.001  0.007  0.002  0.009
    2  0.001  0.007  0.002  0.009
    3  0.001  0.007  0.002  0.009
    4  0.001  0.007  0.002  0.009
    5  0.000  0.002  0.074  0.076
    6  0.000  0.002  0.074  0.076
    7  0.000  0.002  0.075  0.077
    8  0.000  0.002  0.075  0.077
    9  0.000  0.003  0.081  0.084
   10  0.000  0.003  0.081  0.084
   11  0.001  0.019  0.000  0.020
   12  0.001  0.019  0.000  0.020
   13  0.003  0.042  0.000  0.045
   14  0.003  0.042  0.000  0.045
   15  0.001  0.019  0.000  0.020
   16  0.001  0.019  0.000  0.020
   17  0.003  0.042  0.000  0.045
   18  0.003  0.042  0.000  0.045
   19  0.000  0.000  0.000  0.000
   20  0.000  0.000  0.000  0.000
tot    0.021  0.281  0.468  0.770
 
band    37 # energy   -4.53046463 # occ.  2.00000000
 
ion      s      p      d    tot
    1  0.000  0.001  0.030  0.030
    2  0.000  0.000  0.028  0.028
    3  0.000  0.001  0.030  0.030
    4  0.000  0.000  0.028  0.028
    5  0.000  0.000  0.176  0.176
    6  0.000  0.000  0.174  0.175
    7  0.000  0.000  0.175  0.175
    8  0.000  0.000  0.175  0.175
    9  0.000  0.000  0.001  0.001
   10  0.000  0.000  0.000  0.000
   11  0.000  0.023  0.000  0.023
   12  0.000  0.022  0.000  0.023
   13  0.000  0.003  0.000  0.003
   14  0.000  0.004  0.000  0.004
   15  0.000  0.023  0.000  0.023
   16  0.000  0.022  0.000  0.023
   17  0.000  0.003  0.000  0.003
   18  0.000  0.004  0.000  0.004
   19  0.000  0.000  0.000  0.000
   20  0.000  0.000  0.000  0.000
tot    0.000  0.107  0.818  0.925
 
band    38 # energy   -4.52286717 # occ.  2.00000000
 
ion      s      p      d    tot
    1  0.000  0.005  0.061  0.066