       N       E                     dE             d eps       ncg     rms          rms(c)
DAV:   1     0.629236406840E+03    0.62924E+03   -0.34015E+04 34112   0.491E+02
DAV:   2    -0.433017459750E+02   -0.67254E+03   -0.62839E+03 43348   0.150E+02
DAV:   3    -0.115567758144E+03   -0.72266E+02   -0.69790E+02 45016   0.524E+01
DAV:   4    -0.118668639171E+03   -0.31009E+01   -0.30866E+01 43032   0.108E+01
DAV:   5    -0.118739937274E+03   -0.71298E-01   -0.71276E-01 44456   0.178E+00
DAV:   6    -0.118742526874E+03   -0.25896E-02   -0.25895E-02 46700   0.290E-01
DAV:   7    -0.118742640407E+03   -0.11353E-03   -0.11353E-03 46732   0.572E-02
DAV:   8    -0.118742645940E+03   -0.55327E-05   -0.55327E-05 46412   0.100E-02
DAV:   9    -0.118742646107E+03   -0.16680E-06   -0.16671E-06 31516   0.158E-03
DAV:  10    -0.118742646116E+03   -0.91168E-08   -0.92136E-08 24388   0.538E-04
DAV:  11    -0.118742646118E+03   -0.27139E-08   -0.26257E-08 21696   0.327E-04
DAV:  12    -0.118742646120E+03   -0.12806E-08   -0.12472E-08 20832   0.223E-04
DAV:  13    -0.118742646120E+03   -0.61846E-09   -0.66271E-09 20512   0.159E-04
   1 F= -.11874265E+03 E0= -.11874265E+03  d E =-.375366E-10
