 vasp.6.4.2 20Jul23 (build Nov 14 2023 12:59:38) complex                        
  
 executed on             LinuxIFC date 2024.06.22  12:31:49
 running   16 mpi-ranks, on    1 nodes
 distrk:  each k-point on   16 cores,    1 groups
 distr:  one band on NCORE=   4 cores,    4 groups


--------------------------------------------------------------------------------------------------------


 INCAR:
   ENCUT = 303.223
   ALGO = Normal
   NELM = 200
   NELMIN = 6
   NELMDL = -12
   EDIFF = 1.0E-6
   AMIX = 0.1
   BMIX = 0.0001
   NBANDS = 140
   PREC = Accurate
   IVDW = 0
   ISPIN = 1
   ADDGRID = .TRUE.
   LASPH = .TRUE.
   LREAL = Auto
   NSW = 0
   EDIFFG = -0.010
   IBRION = 2
   ISIF = 3
   POTIM = 0.5
   STRESSTYPE = 2
   ISMEAR = 0
   SIGMA = 0.01
   LORBIT = 10
   NEDOS = 6001
   NWRITE = 1
   LWAVE = .FALSE.
   LCHARG = .FALSE.
   ICHARG = 11
   NCORE = 4
   LPLANE = .TRUE.

 POTCAR:    PAW_PBE Ta 17Jan2003                  
 POTCAR:    PAW_PBE Ni 02Aug2007                  
 POTCAR:    PAW_PBE Te 08Apr2002                  
 POTCAR:    PAW_PBE Ta 17Jan2003                  
  local pseudopotential read in
  partial core-charges read in
  partial kinetic energy density read in
  atomic valenz-charges read in
  non local Contribution for L=           2  read in
    real space projection operators read in
  non local Contribution for L=           2  read in
    real space projection operators read in
  non local Contribution for L=           0  read in
    real space projection operators read in
  non local Contribution for L=           0  read in
    real space projection operators read in
  non local Contribution for L=           1  read in
    real space projection operators read in
  non local Contribution for L=           1  read in
    real space projection operators read in
    PAW grid and wavefunctions read in
 
   number of l-projection  operators is LMAX  =           6
   number of lm-projection operators is LMMAX =          18
 
 POTCAR:    PAW_PBE Ni 02Aug2007                  
  local pseudopotential read in
  partial core-charges read in
  partial kinetic energy density read in
  atomic valenz-charges read in
  non local Contribution for L=           2  read in
    real space projection operators read in
  non local Contribution for L=           2  read in
    real space projection operators read in
  non local Contribution for L=           0  read in
    real space projection operators read in
  non local Contribution for L=           0  read in
    real space projection operators read in
  non local Contribution for L=           1  read in
    real space projection operators read in
  non local Contribution for L=           1  read in
    real space projection operators read in
    PAW grid and wavefunctions read in
 
   number of l-projection  operators is LMAX  =           6
   number of lm-projection operators is LMMAX =          18
 
 POTCAR:    PAW_PBE Te 08Apr2002                  
  local pseudopotential read in
  partial core-charges read in
  partial kinetic energy density read in
  atomic valenz-charges read in
  non local Contribution for L=           0  read in
    real space projection operators read in
  non local Contribution for L=           0  read in
    real space projection operators read in
  non local Contribution for L=           1  read in
    real space projection operators read in
  non local Contribution for L=           1  read in
    real space projection operators read in
  non local Contribution for L=           2  read in
    real space projection operators read in
    PAW grid and wavefunctions read in
 
   number of l-projection  operators is LMAX  =           5
   number of lm-projection operators is LMMAX =          13
 
 Optimization of the real space projectors (new method)

 maximal supplied QI-value         = 12.85
 optimisation between [QCUT,QGAM] = [  8.87, 17.73] = [ 22.01, 88.06] Ry 
 Optimized for a Real-space Cutoff    1.95 Angstroem

   l    n(q)    QCUT    max X(q) W(low)/X(q) W(high)/X(q)  e(spline) 
   2      9     8.867    62.315    0.12E-03    0.33E-04    0.12E-05
   2      9     8.867    52.185    0.13E-03    0.33E-04    0.12E-05
   0     10     8.867   103.837    0.13E-04    0.28E-04    0.12E-06
   0     10     8.867    59.728    0.12E-04    0.25E-04    0.11E-06
   1     10     8.867    13.958    0.44E-04    0.17E-05    0.15E-06
   1     10     8.867     8.441    0.31E-04    0.26E-05    0.11E-06
 Optimization of the real space projectors (new method)

 maximal supplied QI-value         = 16.25
 optimisation between [QCUT,QGAM] = [  8.78, 17.71] = [ 21.57, 87.87] Ry 
 Optimized for a Real-space Cutoff    1.54 Angstroem

   l    n(q)    QCUT    max X(q) W(low)/X(q) W(high)/X(q)  e(spline) 
   2      7     8.776    60.317    0.16E-03    0.44E-03    0.23E-06
   2      7     8.776    55.921    0.17E-03    0.44E-03    0.23E-06
   0      8     8.776    51.690    0.22E-03    0.25E-03    0.51E-07
   0      8     8.776    30.015    0.20E-03    0.23E-03    0.47E-07
   1      8     8.776    18.849    0.17E-03    0.19E-03    0.10E-06
   1      8     8.776    14.624    0.15E-03    0.15E-03    0.88E-07
 Optimization of the real space projectors (new method)

 maximal supplied QI-value         = 16.25
 optimisation between [QCUT,QGAM] = [  8.78, 17.71] = [ 21.57, 87.87] Ry 
 Optimized for a Real-space Cutoff    1.49 Angstroem

   l    n(q)    QCUT    max X(q) W(low)/X(q) W(high)/X(q)  e(spline) 
   0      8     8.776   224.858    0.15E-03    0.19E-04    0.75E-07
   0      8     8.776   205.313    0.15E-03    0.20E-04    0.76E-07
   1      7     8.776   119.695    0.23E-03    0.47E-03    0.95E-07
   1      7     8.776    84.282    0.23E-03    0.46E-03    0.93E-07
   2      7     8.776     5.599    0.87E-04    0.38E-04    0.37E-07
  PAW_PBE Ta 17Jan2003                  :
 energy of atom  1       EATOM= -130.6506
 kinetic energy error for atom=    0.0116 (will be added to EATOM!!)
  PAW_PBE Ni 02Aug2007                  :
 energy of atom  2       EATOM=-1077.6739
 kinetic energy error for atom=    0.0306 (will be added to EATOM!!)
  PAW_PBE Te 08Apr2002                  :
 energy of atom  3       EATOM= -223.2721
 kinetic energy error for atom=    0.0026 (will be added to EATOM!!)
 
 
 POSCAR: Ta8 Ni12 Te20
  positions in direct lattice
  velocities in cartesian coordinates
 exchange correlation table for  LEXCH =        8
   RHO(1)=    0.500       N(1)  =     2000
   RHO(2)=  100.500       N(2)  =     4000
 


--------------------------------------------------------------------------------------------------------


 ion  position               nearest neighbor table
   1  0.872  0.250  0.497-   5 2.63   8 2.70   8 2.70  19 2.76  18 2.80  18 2.80  11 2.89  11 2.89
                            10 2.96  10 2.96
   2  0.372  0.750  0.503-   6 2.63   7 2.70   7 2.70  20 2.76  17 2.80  17 2.80  12 2.89  12 2.89
                             9 2.96   9 2.96
   3  0.129  0.250  0.497-   7 2.63   6 2.70   6 2.70  19 2.76  14 2.80  14 2.80  15 2.89  15 2.89
                            10 2.96  10 2.96
   4  0.629  0.750  0.503-   8 2.63   5 2.70   5 2.70  20 2.76  13 2.80  13 2.80  16 2.89  16 2.89
                             9 2.96   9 2.96
   5  0.729  0.250  0.470-   8 2.50   8 2.50  11 2.58  11 2.58  13 2.59   1 2.63   4 2.70   4 2.70
                            16 2.74
   6  0.229  0.750  0.530-   7 2.50   7 2.50  12 2.58  12 2.58  14 2.59   2 2.63   3 2.70   3 2.70
                            15 2.74
   7  0.272  0.250  0.470-   6 2.50   6 2.50  15 2.58  15 2.58  17 2.59   3 2.63   2 2.70   2 2.70
                            12 2.74
   8  0.772  0.750  0.530-   5 2.50   5 2.50  16 2.58  16 2.58  18 2.59   4 2.63   1 2.70   1 2.70
                            11 2.74
   9  0.500  0.250  0.494-  17 2.54  13 2.54  20 2.56  20 2.56   2 2.96   2 2.96   4 2.96   4 2.96

  10  0.000  0.750  0.506-  18 2.54  14 2.54  19 2.56  19 2.56   1 2.96   1 2.96   3 2.96   3 2.96

  11  0.804  0.750  0.423-   5 2.58   5 2.58   8 2.74   1 2.89   1 2.89
  12  0.304  0.250  0.577-   6 2.58   6 2.58   7 2.74   2 2.89   2 2.89
  13  0.601  0.250  0.422-   9 2.54   5 2.59   4 2.80   4 2.80  17 3.57
  14  0.101  0.750  0.578-  10 2.54   6 2.59   3 2.80   3 2.80  18 3.57
  15  0.197  0.750  0.423-   7 2.58   7 2.58   6 2.74   3 2.89   3 2.89
  16  0.697  0.250  0.577-   8 2.58   8 2.58   5 2.74   4 2.89   4 2.89
  17  0.400  0.250  0.422-   9 2.54   7 2.59   2 2.80   2 2.80  13 3.57
  18  0.900  0.750  0.578-  10 2.54   8 2.59   1 2.80   1 2.80  14 3.57
  19  0.000  0.250  0.435-  10 2.56  10 2.56   1 2.76   3 2.76
  20  0.500  0.750  0.565-   9 2.56   9 2.56   2 2.76   4 2.76
 
  LATTYP: Found a simple orthorhombic cell.
 ALAT       =     3.7173663731
 B/A-ratio  =     4.7893243875
 C/A-ratio  =     6.7347578740
  
  Lattice vectors:
  
 A1 = (   0.0000000000,  -3.7173663731,   0.0000000000)
 A2 = (  17.8036734280,   0.0000000000,   0.0000000000)
 A3 = (   0.0000000000,   0.0000000000,  25.0355624519)


Analysis of symmetry for initial positions (statically):
=====================================================================
 Subroutine PRICEL returns:
 Original cell was already a primitive cell.
 

 Routine SETGRP: Setting up the symmetry group for a 
 simple orthorhombic supercell.


 Subroutine GETGRP returns: Found  2 space group operations
 (whereof  1 operations were pure point group operations)
 out of a pool of  8 trial point group operations.


The static configuration has the point symmetry C_1 .
 The point group associated with its full space group is C_1h.


Analysis of symmetry for dynamics (positions and initial velocities):
=====================================================================
 Subroutine PRICEL returns:
 Original cell was already a primitive cell.
 

 Routine SETGRP: Setting up the symmetry group for a 
 simple orthorhombic supercell.


 Subroutine GETGRP returns: Found  2 space group operations
 (whereof  1 operations were pure point group operations)
 out of a pool of  8 trial point group operations.


The dynamic configuration has the point symmetry C_1 .
 The point group associated with its full space group is C_1h.


 Subroutine INISYM returns: Found  2 space group operations
 (whereof  1 operations are pure point group operations),
 and found     1 'primitive' translations


----------------------------------------------------------------------------------------

                                     Primitive cell                                     

  volume of cell :    1656.9230

  direct lattice vectors                    reciprocal lattice vectors
    17.803673428  0.000000000  0.000000000     0.056168184  0.000000000  0.000000000
     0.000000000  3.717366373  0.000000000     0.000000000  0.269007652 -0.000000000
     0.000000000  0.000000000 25.035562452     0.000000000  0.000000000  0.039943181

  length of vectors
    17.803673428  3.717366373 25.035562452     0.056168184  0.269007652  0.039943181

  position of ions in fractional coordinates (direct lattice)
     0.871673196  0.249999970  0.496965903
     0.371656673  0.749999881  0.503047488
     0.129144954  0.249999970  0.496950766
     0.629189849  0.749999881  0.503056190
     0.728969198  0.249999970  0.470428878
     0.228940622  0.749999881  0.529607779
     0.271823733  0.249999970  0.470414353
     0.771838868  0.749999881  0.529614355
     0.500292249  0.249999970  0.494117339
     0.000316075  0.749999881  0.505863449
     0.803873609  0.749999881  0.422630908
     0.303845329  0.249999970  0.577394114
     0.600616500  0.249999970  0.421900216
     0.100570225  0.749999881  0.578112336
     0.196977383  0.749999881  0.422614921
     0.696977929  0.249999970  0.577406064
     0.400112091  0.249999970  0.421842527
     0.900135743  0.749999881  0.578159661
     0.000401553  0.249999970  0.435303419
     0.500401798  0.749999881  0.564661933

  ion indices of the primitive-cell ions
   primitive index   ion index
                 1           1
                 2           2
                 3           3
                 4           4
                 5           5
                 6           6
                 7           7
                 8           8
                 9           9
                10          10
                11          11
                12          12
                13          13
                14          14
                15          15
                16          16
                17          17
                18          18
                19          19
                20          20

----------------------------------------------------------------------------------------

 
 
 KPOINTS: kpoints along symmetry lines            

Interpolating k-points between supplied coordinates.

 Line segments in fractional coordinates (reciprocal lattice):
    0.000000  0.000000  0.000000  ...  0.500000  0.000000  0.000000
    0.500000  0.000000  0.000000  ...  0.500000  0.500000  0.000000
    0.500000  0.500000  0.000000  ...  0.000000  0.500000  0.000000
    0.000000  0.500000  0.000000  ...  0.000000  0.000000  0.000000

 Generated    30 points on each line segment, for a total of    120 k-points:

 Following reciprocal coordinates:
            Coordinates               Weight
  0.000000  0.000000  0.000000      0.008333
  0.017241  0.000000  0.000000      0.008333
  0.034483  0.000000  0.000000      0.008333
  0.051724  0.000000  0.000000      0.008333
  0.068966  0.000000  0.000000      0.008333
  0.086207  0.000000  0.000000      0.008333
  0.103448  0.000000  0.000000      0.008333
  0.120690  0.000000  0.000000      0.008333
  0.137931  0.000000  0.000000      0.008333
  0.155172  0.000000  0.000000      0.008333
  0.172414  0.000000  0.000000      0.008333
  0.189655  0.000000  0.000000      0.008333
  0.206897  0.000000  0.000000      0.008333
  0.224138  0.000000  0.000000      0.008333
  0.241379  0.000000  0.000000      0.008333
  0.258621  0.000000  0.000000      0.008333
  0.275862  0.000000  0.000000      0.008333
  0.293103  0.000000  0.000000      0.008333
  0.310345  0.000000  0.000000      0.008333
  0.327586  0.000000  0.000000      0.008333
  0.344828  0.000000  0.000000      0.008333
  0.362069  0.000000  0.000000      0.008333
  0.379310  0.000000  0.000000      0.008333
  0.396552  0.000000  0.000000      0.008333
  0.413793  0.000000  0.000000      0.008333
  0.431034  0.000000  0.000000      0.008333
  0.448276  0.000000  0.000000      0.008333
  0.465517  0.000000  0.000000      0.008333
  0.482759  0.000000  0.000000      0.008333
  0.500000  0.000000  0.000000      0.008333
  0.500000  0.000000  0.000000      0.008333
  0.500000  0.017241  0.000000      0.008333
  0.500000  0.034483  0.000000      0.008333
  0.500000  0.051724  0.000000      0.008333
  0.500000  0.068966  0.000000      0.008333
  0.500000  0.086207  0.000000      0.008333
  0.500000  0.103448  0.000000      0.008333
  0.500000  0.120690  0.000000      0.008333
  0.500000  0.137931  0.000000      0.008333
  0.500000  0.155172  0.000000      0.008333
  0.500000  0.172414  0.000000      0.008333
  0.500000  0.189655  0.000000      0.008333
  0.500000  0.206897  0.000000      0.008333
  0.500000  0.224138  0.000000      0.008333
  0.500000  0.241379  0.000000      0.008333
  0.500000  0.258621  0.000000      0.008333
  0.500000  0.275862  0.000000      0.008333
  0.500000  0.293103  0.000000      0.008333
  0.500000  0.310345  0.000000      0.008333
  0.500000  0.327586  0.000000      0.008333
  0.500000  0.344828  0.000000      0.008333
  0.500000  0.362069  0.000000      0.008333
  0.500000  0.379310  0.000000      0.008333
  0.500000  0.396552  0.000000      0.008333
  0.500000  0.413793  0.000000      0.008333
  0.500000  0.431034  0.000000      0.008333
  0.500000  0.448276  0.000000      0.008333
  0.500000  0.465517  0.000000      0.008333
  0.500000  0.482759  0.000000      0.008333
  0.500000  0.500000  0.000000      0.008333
  0.500000  0.500000  0.000000      0.008333
  0.482759  0.500000  0.000000      0.008333
  0.465517  0.500000  0.000000      0.008333
  0.448276  0.500000  0.000000      0.008333
  0.431034  0.500000  0.000000      0.008333
  0.413793  0.500000  0.000000      0.008333
  0.396552  0.500000  0.000000      0.008333
  0.379310  0.500000  0.000000      0.008333
  0.362069  0.500000  0.000000      0.008333
  0.344828  0.500000  0.000000      0.008333
  0.327586  0.500000  0.000000      0.008333
  0.310345  0.500000  0.000000      0.008333
  0.293103  0.500000  0.000000      0.008333
  0.275862  0.500000  0.000000      0.008333
  0.258621  0.500000  0.000000      0.008333
  0.241379  0.500000  0.000000      0.008333
  0.224138  0.500000  0.000000      0.008333
  0.206897  0.500000  0.000000      0.008333
  0.189655  0.500000  0.000000      0.008333
  0.172414  0.500000  0.000000      0.008333
  0.155172  0.500000  0.000000      0.008333
  0.137931  0.500000  0.000000      0.008333
  0.120690  0.500000  0.000000      0.008333
  0.103448  0.500000  0.000000      0.008333
  0.086207  0.500000  0.000000      0.008333
  0.068966  0.500000  0.000000      0.008333
  0.051724  0.500000  0.000000      0.008333
  0.034483  0.500000  0.000000      0.008333
  0.017241  0.500000  0.000000      0.008333
  0.000000  0.500000  0.000000      0.008333
  0.000000  0.500000  0.000000      0.008333
  0.000000  0.482759  0.000000      0.008333
  0.000000  0.465517  0.000000      0.008333
  0.000000  0.448276  0.000000      0.008333
  0.000000  0.431034  0.000000      0.008333
  0.000000  0.413793  0.000000      0.008333
  0.000000  0.396552  0.000000      0.008333
  0.000000  0.379310  0.000000      0.008333
  0.000000  0.362069  0.000000      0.008333
  0.000000  0.344828  0.000000      0.008333
  0.000000  0.327586  0.000000      0.008333
  0.000000  0.310345  0.000000      0.008333
  0.000000  0.293103  0.000000      0.008333
  0.000000  0.275862  0.000000      0.008333
  0.000000  0.258621  0.000000      0.008333
  0.000000  0.241379  0.000000      0.008333
  0.000000  0.224138  0.000000      0.008333
  0.000000  0.206897  0.000000      0.008333
  0.000000  0.189655  0.000000      0.008333
  0.000000  0.172414  0.000000      0.008333
  0.000000  0.155172  0.000000      0.008333
  0.000000  0.137931  0.000000      0.008333
  0.000000  0.120690  0.000000      0.008333
  0.000000  0.103448  0.000000      0.008333
  0.000000  0.086207  0.000000      0.008333
  0.000000  0.068966  0.000000      0.008333
  0.000000  0.051724  0.000000      0.008333
  0.000000  0.034483  0.000000      0.008333
  0.000000  0.017241  0.000000      0.008333
  0.000000  0.000000  0.000000      0.008333

 Following cartesian coordinates:
            Coordinates               Weight
  0.000000  0.000000  0.000000      0.008333
  0.000968  0.000000  0.000000      0.008333
  0.001937  0.000000  0.000000      0.008333
  0.002905  0.000000  0.000000      0.008333
  0.003874  0.000000  0.000000      0.008333
  0.004842  0.000000  0.000000      0.008333
  0.005811  0.000000  0.000000      0.008333
  0.006779  0.000000  0.000000      0.008333
  0.007747  0.000000  0.000000      0.008333
  0.008716  0.000000  0.000000      0.008333
  0.009684  0.000000  0.000000      0.008333
  0.010653  0.000000  0.000000      0.008333
  0.011621  0.000000  0.000000      0.008333
  0.012589  0.000000  0.000000      0.008333
  0.013558  0.000000  0.000000      0.008333
  0.014526  0.000000  0.000000      0.008333
  0.015495  0.000000  0.000000      0.008333
  0.016463  0.000000  0.000000      0.008333
  0.017432  0.000000  0.000000      0.008333
  0.018400  0.000000  0.000000      0.008333
  0.019368  0.000000  0.000000      0.008333
  0.020337  0.000000  0.000000      0.008333
  0.021305  0.000000  0.000000      0.008333
  0.022274  0.000000  0.000000      0.008333
  0.023242  0.000000  0.000000      0.008333
  0.024210  0.000000  0.000000      0.008333
  0.025179  0.000000  0.000000      0.008333
  0.026147  0.000000  0.000000      0.008333
  0.027116  0.000000  0.000000      0.008333
  0.028084  0.000000  0.000000      0.008333
  0.028084  0.000000  0.000000      0.008333
  0.028084  0.004638 -0.000000      0.008333
  0.028084  0.009276 -0.000000      0.008333
  0.028084  0.013914 -0.000000      0.008333
  0.028084  0.018552 -0.000000      0.008333
  0.028084  0.023190 -0.000000      0.008333
  0.028084  0.027828 -0.000000      0.008333
  0.028084  0.032466 -0.000000      0.008333
  0.028084  0.037105 -0.000000      0.008333
  0.028084  0.041743 -0.000000      0.008333
  0.028084  0.046381 -0.000000      0.008333
  0.028084  0.051019 -0.000000      0.008333
  0.028084  0.055657 -0.000000      0.008333
  0.028084  0.060295 -0.000000      0.008333
  0.028084  0.064933 -0.000000      0.008333
  0.028084  0.069571 -0.000000      0.008333
  0.028084  0.074209 -0.000000      0.008333
  0.028084  0.078847 -0.000000      0.008333
  0.028084  0.083485 -0.000000      0.008333
  0.028084  0.088123 -0.000000      0.008333
  0.028084  0.092761 -0.000000      0.008333
  0.028084  0.097399 -0.000000      0.008333
  0.028084  0.102037 -0.000000      0.008333
  0.028084  0.106675 -0.000000      0.008333
  0.028084  0.111314 -0.000000      0.008333
  0.028084  0.115952 -0.000000      0.008333
  0.028084  0.120590 -0.000000      0.008333
  0.028084  0.125228 -0.000000      0.008333
  0.028084  0.129866 -0.000000      0.008333
  0.028084  0.134504 -0.000000      0.008333
  0.028084  0.134504 -0.000000      0.008333
  0.027116  0.134504 -0.000000      0.008333
  0.026147  0.134504 -0.000000      0.008333
  0.025179  0.134504 -0.000000      0.008333
  0.024210  0.134504 -0.000000      0.008333
  0.023242  0.134504 -0.000000      0.008333
  0.022274  0.134504 -0.000000      0.008333
  0.021305  0.134504 -0.000000      0.008333
  0.020337  0.134504 -0.000000      0.008333
  0.019368  0.134504 -0.000000      0.008333
  0.018400  0.134504 -0.000000      0.008333
  0.017432  0.134504 -0.000000      0.008333
  0.016463  0.134504 -0.000000      0.008333
  0.015495  0.134504 -0.000000      0.008333
  0.014526  0.134504 -0.000000      0.008333
  0.013558  0.134504 -0.000000      0.008333
  0.012589  0.134504 -0.000000      0.008333
  0.011621  0.134504 -0.000000      0.008333
  0.010653  0.134504 -0.000000      0.008333
  0.009684  0.134504 -0.000000      0.008333
  0.008716  0.134504 -0.000000      0.008333
  0.007747  0.134504 -0.000000      0.008333
  0.006779  0.134504 -0.000000      0.008333
  0.005811  0.134504 -0.000000      0.008333
  0.004842  0.134504 -0.000000      0.008333
  0.003874  0.134504 -0.000000      0.008333
  0.002905  0.134504 -0.000000      0.008333
  0.001937  0.134504 -0.000000      0.008333
  0.000968  0.134504 -0.000000      0.008333
  0.000000  0.134504 -0.000000      0.008333
  0.000000  0.134504 -0.000000      0.008333
  0.000000  0.129866 -0.000000      0.008333
  0.000000  0.125228 -0.000000      0.008333
  0.000000  0.120590 -0.000000      0.008333
  0.000000  0.115952 -0.000000      0.008333
  0.000000  0.111314 -0.000000      0.008333
  0.000000  0.106675 -0.000000      0.008333
  0.000000  0.102037 -0.000000      0.008333
  0.000000  0.097399 -0.000000      0.008333
  0.000000  0.092761 -0.000000      0.008333
  0.000000  0.088123 -0.000000      0.008333
  0.000000  0.083485 -0.000000      0.008333
  0.000000  0.078847 -0.000000      0.008333
  0.000000  0.074209 -0.000000      0.008333
  0.000000  0.069571 -0.000000      0.008333
  0.000000  0.064933 -0.000000      0.008333
  0.000000  0.060295 -0.000000      0.008333
  0.000000  0.055657 -0.000000      0.008333
  0.000000  0.051019 -0.000000      0.008333
  0.000000  0.046381 -0.000000      0.008333
  0.000000  0.041743 -0.000000      0.008333
  0.000000  0.037105 -0.000000      0.008333
  0.000000  0.032466 -0.000000      0.008333
  0.000000  0.027828 -0.000000      0.008333
  0.000000  0.023190 -0.000000      0.008333
  0.000000  0.018552 -0.000000      0.008333
  0.000000  0.013914 -0.000000      0.008333
  0.000000  0.009276 -0.000000      0.008333
  0.000000  0.004638 -0.000000      0.008333
  0.000000  0.000000  0.000000      0.008333
 


--------------------------------------------------------------------------------------------------------




 Dimension of arrays:
   k-points           NKPTS =    120   k-points in BZ     NKDIM =    120   number of bands    NBANDS=    140
   number of dos      NEDOS =   6001   number of ions     NIONS =     20
   non local maximal  LDIM  =      6   non local SUM 2l+1 LMDIM =     18
   total plane-waves  NPLWV = 373248
   max r-space proj   IRMAX =   7047   max aug-charges    IRDMAX= 122858
   dimension x,y,z NGX =   108 NGY =   24 NGZ =  144
   dimension x,y,z NGXF=   216 NGYF=   48 NGZF=  288
   support grid    NGXF=   432 NGYF=   96 NGZF=  576
   ions per type =               4   6  10
   NGX,Y,Z   is equivalent  to a cutoff of  10.08, 10.73,  9.56 a.u.
   NGXF,Y,Z  is equivalent  to a cutoff of  20.17, 21.47, 19.12 a.u.

 SYSTEM =  unknown system                          
 POSCAR =  Ta8 Ni12 Te20                           

 Startparameter for this run:
   NWRITE =      1    write-flag & timer
   PREC   = accura    normal or accurate (medium, high low for compatibility)
   ISTART =      0    job   : 0-new  1-cont  2-samecut
   ICHARG =     11    charge: 1-file 2-atom 10-const
   ISPIN  =      1    spin polarized calculation?
   LNONCOLLINEAR =      F non collinear calculations
   LSORBIT =      F    spin-orbit coupling
   INIWAV =      1    electr: 0-lowe 1-rand  2-diag
   LASPH  =      T    aspherical Exc in radial PAW
 Electronic Relaxation 1
   ENCUT  =  303.2 eV  22.29 Ry    4.72 a.u.  25.28  5.28 35.55*2*pi/ulx,y,z
   ENINI  =  303.2     initial cutoff
   ENAUG  =  544.6 eV  augmentation charge cutoff
   NELM   =    200;   NELMIN=  6; NELMDL=-12     # of ELM steps 
   EDIFF  = 0.1E-05   stopping-criterion for ELM
   LREAL  =      T    real-space projection
   NLSPLINE    = F    spline interpolate recip. space projectors
   LCOMPAT=      F    compatible to vasp.4.4
   GGA_COMPAT  = T    GGA compatible to vasp.4.4-vasp.4.6
   LMAXPAW     = -100 max onsite density
   LMAXMIX     =    2 max onsite mixed and CHGCAR
   VOSKOWN=      0    Vosko Wilk Nusair interpolation
   ROPT   =   -0.00025  -0.00025  -0.00025
 Ionic relaxation
   EDIFFG = -.1E-01   stopping-criterion for IOM
   NSW    =      0    number of steps for IOM
   NBLOCK =      1;   KBLOCK =      1    inner block; outer block 
   IBRION =     -1    ionic relax: 0-MD 1-quasi-New 2-CG
   NFREE  =      1    steps in history (QN), initial steepest desc. (CG)
   ISIF   =      3    stress and relaxation
   IWAVPR =     10    prediction:  0-non 1-charg 2-wave 3-comb
   ISYM   =      2    0-nonsym 1-usesym 2-fastsym
   LCORR  =      T    Harris-Foulkes like correction to forces

   POTIM  = 0.5000    time-step for ionic-motion
   TEIN   =    0.0    initial temperature
   TEBEG  =    0.0;   TEEND  =   0.0 temperature during run
   SMASS  =  -3.00    Nose mass-parameter (am)
   estimated Nose-frequenzy (Omega)   =  0.10E-29 period in steps = 0.13E+47 mass=  -0.724E-26a.u.
   SCALEE = 1.0000    scale energy and forces
   NPACO  =    256;   APACO  = 10.0  distance and # of slots for P.C.
   PSTRESS=    0.0 pullay stress

  Mass of Ions in am
   POMASS = 180.95 58.69127.60
  Ionic Valenz
   ZVAL   =   5.00 10.00  6.00
  Atomic Wigner-Seitz radii
   RWIGS  =  -1.00 -1.00 -1.00
  virtual crystal weights 
   VCA    =   1.00  1.00  1.00
   NELECT =     140.0000    total number of electrons
   NUPDOWN=      -1.0000    fix difference up-down

 DOS related values:
   EMIN   =  10.00;   EMAX   =-10.00  energy-range for DOS
   EFERMI =   0.00;   METHOD = LEGACY      
   ISMEAR =     0;   SIGMA  =   0.01  broadening in eV -4-tet -1-fermi 0-gaus

 Electronic relaxation 2 (details)
   IALGO  =     38    algorithm
   LDIAG  =      T    sub-space diagonalisation (order eigenvalues)
   LSUBROT=      F    optimize rotation matrix (better conditioning)
   TURBO    =      0    0=normal 1=particle mesh
   IRESTART =      0    0=no restart 2=restart with 2 vectors
   NREBOOT  =      0    no. of reboots
   NMIN     =      0    reboot dimension
   EREF     =   0.00    reference energy to select bands
   IMIX   =      4    mixing-type and parameters
     AMIX     =   0.10;   BMIX     =  0.00
     AMIX_MAG =   0.40;   BMIX_MAG =  0.00
     AMIN     =   0.10
     WC   =   100.;   INIMIX=   1;  MIXPRE=   1;  MAXMIX= -45

 Intra band minimization:
   WEIMIN = 0.0000     energy-eigenvalue tresh-hold
   EBREAK =  0.18E-08  absolut break condition
   DEPER  =   0.30     relativ break condition  

   TIME   =   0.40     timestep for ELM

  volume/ion in A,a.u.               =      82.85       559.07
  Fermi-wavevector in a.u.,A,eV,Ry     =   0.718373  1.357528  7.021421  0.516060
  Thomas-Fermi vector in A             =   1.807294
 
 Write flags
   LWAVE        =      F    write WAVECAR
   LDOWNSAMPLE  =      F    k-point downsampling of WAVECAR
   LCHARG       =      F    write CHGCAR
   LVTOT        =      F    write LOCPOT, total local potential
   LVHAR        =      F    write LOCPOT, Hartree potential only
   LELF         =      F    write electronic localiz. function (ELF)
   LORBIT       =     10    0 simple, 1 ext, 2 COOP (PROOUT), +10 PAW based schemes


 Dipole corrections
   LMONO  =      F    monopole corrections only (constant potential shift)
   LDIPOL =      F    correct potential (dipole corrections)
   IDIPOL =      0    1-x, 2-y, 3-z, 4-all directions 
   EPSILON=  1.0000000 bulk dielectric constant

 Exchange correlation treatment:
   GGA     =    --    GGA type
   LEXCH   =     8    internal setting for exchange type
   LIBXC   =     F    Libxc                    
   VOSKOWN =     0    Vosko Wilk Nusair interpolation
   LHFCALC =     F    Hartree Fock is set to
   LHFONE  =     F    Hartree Fock one center treatment
   AEXX    =    0.0000 exact exchange contribution

 Linear response parameters
   LEPSILON=     F    determine dielectric tensor
   LRPA    =     F    only Hartree local field effects (RPA)
   LNABLA  =     F    use nabla operator in PAW spheres
   LVEL    =     F    velocity operator in full k-point grid
   CSHIFT  =0.1000    complex shift for real part using Kramers Kronig
   OMEGAMAX=  -1.0    maximum frequency
   DEG_THRESHOLD= 0.2000000E-02 threshold for treating states as degnerate
   RTIME   =   -0.100 relaxation time in fs
  (WPLASMAI=    0.000 imaginary part of plasma frequency in eV, 0.658/RTIME)
   DFIELD  = 0.0000000 0.0000000 0.0000000 field for delta impulse in time
 
  Optional k-point grid parameters
   LKPOINTS_OPT  =     F    use optional k-point grid
   KPOINTS_OPT_MODE=     1    mode for optional k-point grid
 
 Orbital magnetization related:
   ORBITALMAG=     F  switch on orbital magnetization
   LCHIMAG   =     F  perturbation theory with respect to B field
   DQ        =  0.001000  dq finite difference perturbation B field
   LLRAUG    =     F  two centre corrections for induced B field
   LBONE     =     F  B-component reconstruction in AE one-centre
   LVGVCALC  =     T  calculate vGv susceptibility
   LVGVAPPL  =     F  apply vGv susceptibility instead of pGv for G=0

 Random number generation:
   RANDOM_GENERATOR = DEFAULT
   PCG_SEED         = not used


--------------------------------------------------------------------------------------------------------


 Static calculation
 charge density and potential remain constant during run
 non-spin polarized calculation
 Variant of blocked Davidson
 Davidson routine will perform the subspace rotation
 perform sub-space diagonalisation
    after iterative eigenvector-optimisation
 no mixing
 using additional bands           70
 real space projection scheme for non local part
 use partial core corrections
 calculate Harris-corrections to forces 
   (improved forces if not selfconsistent)
 use gradient corrections 
 WARNING: stress and forces are not correct
  (second derivative of E(xc) not defined)
 use of overlap-Matrix (Vanderbilt PP)
 Gauss-broadening in eV      SIGMA  =   0.01


--------------------------------------------------------------------------------------------------------


  energy-cutoff  :      303.22
  volume of cell :     1656.92
      direct lattice vectors                 reciprocal lattice vectors
    17.803673428  0.000000000  0.000000000     0.056168184  0.000000000  0.000000000
     0.000000000  3.717366373  0.000000000     0.000000000  0.269007652 -0.000000000
     0.000000000  0.000000000 25.035562452     0.000000000  0.000000000  0.039943181

  length of vectors
    17.803673428  3.717366373 25.035562452     0.056168184  0.269007652  0.039943181


 
 k-points in units of 2pi/SCALE and weight: kpoints along symmetry lines            
   0.00000000  0.00000000  0.00000000       0.008
   0.00096842  0.00000000  0.00000000       0.008
   0.00193683  0.00000000  0.00000000       0.008
   0.00290525  0.00000000  0.00000000       0.008
   0.00387367  0.00000000  0.00000000       0.008
   0.00484208  0.00000000  0.00000000       0.008
   0.00581050  0.00000000  0.00000000       0.008
   0.00677892  0.00000000  0.00000000       0.008
   0.00774734  0.00000000  0.00000000       0.008
   0.00871575  0.00000000  0.00000000       0.008
   0.00968417  0.00000000  0.00000000       0.008
   0.01065259  0.00000000  0.00000000       0.008
   0.01162100  0.00000000  0.00000000       0.008
   0.01258942  0.00000000  0.00000000       0.008
   0.01355784  0.00000000  0.00000000       0.008
   0.01452625  0.00000000  0.00000000       0.008
   0.01549467  0.00000000  0.00000000       0.008
   0.01646309  0.00000000  0.00000000       0.008
   0.01743151  0.00000000  0.00000000       0.008
   0.01839992  0.00000000  0.00000000       0.008
   0.01936834  0.00000000  0.00000000       0.008
   0.02033676  0.00000000  0.00000000       0.008
   0.02130517  0.00000000  0.00000000       0.008
   0.02227359  0.00000000  0.00000000       0.008
   0.02324201  0.00000000  0.00000000       0.008
   0.02421042  0.00000000  0.00000000       0.008
   0.02517884  0.00000000  0.00000000       0.008
   0.02614726  0.00000000  0.00000000       0.008
   0.02711567  0.00000000  0.00000000       0.008
   0.02808409  0.00000000  0.00000000       0.008
   0.02808409  0.00000000  0.00000000       0.008
   0.02808409  0.00463806 -0.00000000       0.008
   0.02808409  0.00927613 -0.00000000       0.008
   0.02808409  0.01391419 -0.00000000       0.008
   0.02808409  0.01855225 -0.00000000       0.008
   0.02808409  0.02319031 -0.00000000       0.008
   0.02808409  0.02782838 -0.00000000       0.008
   0.02808409  0.03246644 -0.00000000       0.008
   0.02808409  0.03710450 -0.00000000       0.008
   0.02808409  0.04174257 -0.00000000       0.008
   0.02808409  0.04638063 -0.00000000       0.008
   0.02808409  0.05101869 -0.00000000       0.008
   0.02808409  0.05565676 -0.00000000       0.008
   0.02808409  0.06029482 -0.00000000       0.008
   0.02808409  0.06493288 -0.00000000       0.008
   0.02808409  0.06957094 -0.00000000       0.008
   0.02808409  0.07420901 -0.00000000       0.008
   0.02808409  0.07884707 -0.00000000       0.008
   0.02808409  0.08348513 -0.00000000       0.008
   0.02808409  0.08812320 -0.00000000       0.008
   0.02808409  0.09276126 -0.00000000       0.008
   0.02808409  0.09739932 -0.00000000       0.008
   0.02808409  0.10203739 -0.00000000       0.008
   0.02808409  0.10667545 -0.00000000       0.008
   0.02808409  0.11131351 -0.00000000       0.008
   0.02808409  0.11595157 -0.00000000       0.008
   0.02808409  0.12058964 -0.00000000       0.008
   0.02808409  0.12522770 -0.00000000       0.008
   0.02808409  0.12986576 -0.00000000       0.008
   0.02808409  0.13450383 -0.00000000       0.008
   0.02808409  0.13450383 -0.00000000       0.008
   0.02711567  0.13450383 -0.00000000       0.008
   0.02614726  0.13450383 -0.00000000       0.008
   0.02517884  0.13450383 -0.00000000       0.008
   0.02421042  0.13450383 -0.00000000       0.008
   0.02324201  0.13450383 -0.00000000       0.008
   0.02227359  0.13450383 -0.00000000       0.008
   0.02130517  0.13450383 -0.00000000       0.008
   0.02033676  0.13450383 -0.00000000       0.008
   0.01936834  0.13450383 -0.00000000       0.008
   0.01839992  0.13450383 -0.00000000       0.008
   0.01743151  0.13450383 -0.00000000       0.008
   0.01646309  0.13450383 -0.00000000       0.008
   0.01549467  0.13450383 -0.00000000       0.008
   0.01452625  0.13450383 -0.00000000       0.008
   0.01355784  0.13450383 -0.00000000       0.008
   0.01258942  0.13450383 -0.00000000       0.008
   0.01162100  0.13450383 -0.00000000       0.008
   0.01065259  0.13450383 -0.00000000       0.008
   0.00968417  0.13450383 -0.00000000       0.008
   0.00871575  0.13450383 -0.00000000       0.008
   0.00774734  0.13450383 -0.00000000       0.008
   0.00677892  0.13450383 -0.00000000       0.008
   0.00581050  0.13450383 -0.00000000       0.008
   0.00484208  0.13450383 -0.00000000       0.008
   0.00387367  0.13450383 -0.00000000       0.008
   0.00290525  0.13450383 -0.00000000       0.008
   0.00193683  0.13450383 -0.00000000       0.008
   0.00096842  0.13450383 -0.00000000       0.008
   0.00000000  0.13450383 -0.00000000       0.008
   0.00000000  0.13450383 -0.00000000       0.008
   0.00000000  0.12986576 -0.00000000       0.008
   0.00000000  0.12522770 -0.00000000       0.008
   0.00000000  0.12058964 -0.00000000       0.008
   0.00000000  0.11595157 -0.00000000       0.008
   0.00000000  0.11131351 -0.00000000       0.008
   0.00000000  0.10667545 -0.00000000       0.008
   0.00000000  0.10203739 -0.00000000       0.008
   0.00000000  0.09739932 -0.00000000       0.008
   0.00000000  0.09276126 -0.00000000       0.008
   0.00000000  0.08812320 -0.00000000       0.008
   0.00000000  0.08348513 -0.00000000       0.008
   0.00000000  0.07884707 -0.00000000       0.008
   0.00000000  0.07420901 -0.00000000       0.008
   0.00000000  0.06957094 -0.00000000       0.008
   0.00000000  0.06493288 -0.00000000       0.008
   0.00000000  0.06029482 -0.00000000       0.008
   0.00000000  0.05565676 -0.00000000       0.008
   0.00000000  0.05101869 -0.00000000       0.008
   0.00000000  0.04638063 -0.00000000       0.008
   0.00000000  0.04174257 -0.00000000       0.008
   0.00000000  0.03710450 -0.00000000       0.008
   0.00000000  0.03246644 -0.00000000       0.008
   0.00000000  0.02782838 -0.00000000       0.008
   0.00000000  0.02319031 -0.00000000       0.008
   0.00000000  0.01855225 -0.00000000       0.008
   0.00000000  0.01391419 -0.00000000       0.008
   0.00000000  0.00927613 -0.00000000       0.008
   0.00000000  0.00463806 -0.00000000       0.008
   0.00000000  0.00000000  0.00000000       0.008
 
 k-points in reciprocal lattice and weights: kpoints along symmetry lines            
   0.00000000  0.00000000  0.00000000       0.008
   0.01724138  0.00000000  0.00000000       0.008
   0.03448276  0.00000000  0.00000000       0.008
   0.05172414  0.00000000  0.00000000       0.008
   0.06896552  0.00000000  0.00000000       0.008
   0.08620690  0.00000000  0.00000000       0.008
   0.10344828  0.00000000  0.00000000       0.008
   0.12068966  0.00000000  0.00000000       0.008
   0.13793103  0.00000000  0.00000000       0.008
   0.15517241  0.00000000  0.00000000       0.008
   0.17241379  0.00000000  0.00000000       0.008
   0.18965517  0.00000000  0.00000000       0.008
   0.20689655  0.00000000  0.00000000       0.008
   0.22413793  0.00000000  0.00000000       0.008
   0.24137931  0.00000000  0.00000000       0.008
   0.25862069  0.00000000  0.00000000       0.008
   0.27586207  0.00000000  0.00000000       0.008
   0.29310345  0.00000000  0.00000000       0.008
   0.31034483  0.00000000  0.00000000       0.008
   0.32758621  0.00000000  0.00000000       0.008
   0.34482759  0.00000000  0.00000000       0.008
   0.36206897  0.00000000  0.00000000       0.008
   0.37931034  0.00000000  0.00000000       0.008
   0.39655172  0.00000000  0.00000000       0.008
   0.41379310  0.00000000  0.00000000       0.008
   0.43103448  0.00000000  0.00000000       0.008
   0.44827586  0.00000000  0.00000000       0.008
   0.46551724  0.00000000  0.00000000       0.008
   0.48275862  0.00000000  0.00000000       0.008
   0.50000000  0.00000000  0.00000000       0.008
   0.50000000  0.00000000  0.00000000       0.008
   0.50000000  0.01724138  0.00000000       0.008
   0.50000000  0.03448276  0.00000000       0.008
   0.50000000  0.05172414  0.00000000       0.008
   0.50000000  0.06896552  0.00000000       0.008
   0.50000000  0.08620690  0.00000000       0.008
   0.50000000  0.10344828  0.00000000       0.008
   0.50000000  0.12068966  0.00000000       0.008
   0.50000000  0.13793103  0.00000000       0.008
   0.50000000  0.15517241  0.00000000       0.008
   0.50000000  0.17241379  0.00000000       0.008
   0.50000000  0.18965517  0.00000000       0.008
   0.50000000  0.20689655  0.00000000       0.008
   0.50000000  0.22413793  0.00000000       0.008
   0.50000000  0.24137931  0.00000000       0.008
   0.50000000  0.25862069  0.00000000       0.008
   0.50000000  0.27586207  0.00000000       0.008
   0.50000000  0.29310345  0.00000000       0.008
   0.50000000  0.31034483  0.00000000       0.008
   0.50000000  0.32758621  0.00000000       0.008
   0.50000000  0.34482759  0.00000000       0.008
   0.50000000  0.36206897  0.00000000       0.008
   0.50000000  0.37931034  0.00000000       0.008
   0.50000000  0.39655172  0.00000000       0.008
   0.50000000  0.41379310  0.00000000       0.008
   0.50000000  0.43103448  0.00000000       0.008
   0.50000000  0.44827586  0.00000000       0.008
   0.50000000  0.46551724  0.00000000       0.008
   0.50000000  0.48275862  0.00000000       0.008
   0.50000000  0.50000000  0.00000000       0.008
   0.50000000  0.50000000  0.00000000       0.008
   0.48275862  0.50000000  0.00000000       0.008
   0.46551724  0.50000000  0.00000000       0.008
   0.44827586  0.50000000  0.00000000       0.008
   0.43103448  0.50000000  0.00000000       0.008
   0.41379310  0.50000000  0.00000000       0.008
   0.39655172  0.50000000  0.00000000       0.008
   0.37931034  0.50000000  0.00000000       0.008
   0.36206897  0.50000000  0.00000000       0.008
   0.34482759  0.50000000  0.00000000       0.008
   0.32758621  0.50000000  0.00000000       0.008
   0.31034483  0.50000000  0.00000000       0.008
   0.29310345  0.50000000  0.00000000       0.008
   0.27586207  0.50000000  0.00000000       0.008
   0.25862069  0.50000000  0.00000000       0.008
   0.24137931  0.50000000  0.00000000       0.008
   0.22413793  0.50000000  0.00000000       0.008
   0.20689655  0.50000000  0.00000000       0.008
   0.18965517  0.50000000  0.00000000       0.008
   0.17241379  0.50000000  0.00000000       0.008
   0.15517241  0.50000000  0.00000000       0.008
   0.13793103  0.50000000  0.00000000       0.008
   0.12068966  0.50000000  0.00000000       0.008
   0.10344828  0.50000000  0.00000000       0.008
   0.08620690  0.50000000  0.00000000       0.008
   0.06896552  0.50000000  0.00000000       0.008
   0.05172414  0.50000000  0.00000000       0.008
   0.03448276  0.50000000  0.00000000       0.008
   0.01724138  0.50000000  0.00000000       0.008
   0.00000000  0.50000000  0.00000000       0.008
   0.00000000  0.50000000  0.00000000       0.008
   0.00000000  0.48275862  0.00000000       0.008
   0.00000000  0.46551724  0.00000000       0.008
   0.00000000  0.44827586  0.00000000       0.008
   0.00000000  0.43103448  0.00000000       0.008
   0.00000000  0.41379310  0.00000000       0.008
   0.00000000  0.39655172  0.00000000       0.008
   0.00000000  0.37931034  0.00000000       0.008
   0.00000000  0.36206897  0.00000000       0.008
   0.00000000  0.34482759  0.00000000       0.008
   0.00000000  0.32758621  0.00000000       0.008
   0.00000000  0.31034483  0.00000000       0.008
   0.00000000  0.29310345  0.00000000       0.008
   0.00000000  0.27586207  0.00000000       0.008
   0.00000000  0.25862069  0.00000000       0.008
   0.00000000  0.24137931  0.00000000       0.008
   0.00000000  0.22413793  0.00000000       0.008
   0.00000000  0.20689655  0.00000000       0.008
   0.00000000  0.18965517  0.00000000       0.008
   0.00000000  0.17241379  0.00000000       0.008
   0.00000000  0.15517241  0.00000000       0.008
   0.00000000  0.13793103  0.00000000       0.008
   0.00000000  0.12068966  0.00000000       0.008
   0.00000000  0.10344828  0.00000000       0.008
   0.00000000  0.08620690  0.00000000       0.008
   0.00000000  0.06896552  0.00000000       0.008
   0.00000000  0.05172414  0.00000000       0.008
   0.00000000  0.03448276  0.00000000       0.008
   0.00000000  0.01724138  0.00000000       0.008
   0.00000000  0.00000000  0.00000000       0.008
 
 position of ions in fractional coordinates (direct lattice) 
   0.87167320  0.24999997  0.49696590
   0.37165667  0.74999988  0.50304749
   0.12914495  0.24999997  0.49695077
   0.62918985  0.74999988  0.50305619
   0.72896920  0.24999997  0.47042888
   0.22894062  0.74999988  0.52960778
   0.27182373  0.24999997  0.47041435
   0.77183887  0.74999988  0.52961436
   0.50029225  0.24999997  0.49411734
   0.00031608  0.74999988  0.50586345
   0.80387361  0.74999988  0.42263091
   0.30384533  0.24999997  0.57739411
   0.60061650  0.24999997  0.42190022
   0.10057022  0.74999988  0.57811234
   0.19697738  0.74999988  0.42261492
   0.69697793  0.24999997  0.57740606
   0.40011209  0.24999997  0.42184253
   0.90013574  0.74999988  0.57815966
   0.00040155  0.24999997  0.43530342
   0.50040180  0.74999988  0.56466193
 
 position of ions in cartesian coordinates  (Angst):
  15.51898491  0.92934148 12.44182090
   6.61685404  2.78802434 12.59407680
   2.29925459  0.92934148 12.44144193
  11.20189060  2.78802434 12.59429466
  12.97832955  0.92934148 11.77745156
   4.07598407  2.78802434 13.25902862
   4.83946098  0.92934148 11.77708792
  13.74156715  2.78802434 13.25919327
   8.90703983  0.92934148 12.37050549
   0.00562730  2.78802434 12.66457597
  14.31190320  2.78802434 10.58080250
   5.40956301  0.92934148 14.45538639
  10.69318002  0.92934148 10.56250921
   1.79051943  2.78802434 14.47336749
   3.50692100  2.78802434 10.58040226
  12.40876744  0.92934148 14.45568557
   7.12346501  0.92934148 10.56106494
  16.02572282  2.78802434 14.47455230
   0.00714912  0.92934148 10.89806592
   8.90899020  2.78802434 14.13662908
 


--------------------------------------------------------------------------------------------------------


 k-point   1 :   0.0000 0.0000 0.0000  plane waves:   19903
 k-point   2 :   0.0172 0.0000 0.0000  plane waves:   19897
 k-point   3 :   0.0345 0.0000 0.0000  plane waves:   19897
 k-point   4 :   0.0517 0.0000 0.0000  plane waves:   19891
 k-point   5 :   0.0690 0.0000 0.0000  plane waves:   19887
 k-point   6 :   0.0862 0.0000 0.0000  plane waves:   19895
 k-point   7 :   0.1034 0.0000 0.0000  plane waves:   19891
 k-point   8 :   0.1207 0.0000 0.0000  plane waves:   19889
 k-point   9 :   0.1379 0.0000 0.0000  plane waves:   19889
 k-point  10 :   0.1552 0.0000 0.0000  plane waves:   19899
 k-point  11 :   0.1724 0.0000 0.0000  plane waves:   19891
 k-point  12 :   0.1897 0.0000 0.0000  plane waves:   19915
 k-point  13 :   0.2069 0.0000 0.0000  plane waves:   19915
 k-point  14 :   0.2241 0.0000 0.0000  plane waves:   19929
 k-point  15 :   0.2414 0.0000 0.0000  plane waves:   19927
 k-point  16 :   0.2586 0.0000 0.0000  plane waves:   19925
 k-point  17 :   0.2759 0.0000 0.0000  plane waves:   19917
 k-point  18 :   0.2931 0.0000 0.0000  plane waves:   19912
 k-point  19 :   0.3103 0.0000 0.0000  plane waves:   19916
 k-point  20 :   0.3276 0.0000 0.0000  plane waves:   19920
 k-point  21 :   0.3448 0.0000 0.0000  plane waves:   19924
 k-point  22 :   0.3621 0.0000 0.0000  plane waves:   19910
 k-point  23 :   0.3793 0.0000 0.0000  plane waves:   19906
 k-point  24 :   0.3966 0.0000 0.0000  plane waves:   19890
 k-point  25 :   0.4138 0.0000 0.0000  plane waves:   19882
 k-point  26 :   0.4310 0.0000 0.0000  plane waves:   19892
 k-point  27 :   0.4483 0.0000 0.0000  plane waves:   19900
 k-point  28 :   0.4655 0.0000 0.0000  plane waves:   19894
 k-point  29 :   0.4828 0.0000 0.0000  plane waves:   19892
 k-point  30 :   0.5000 0.0000 0.0000  plane waves:   19886
 k-point  31 :   0.5000 0.0000 0.0000  plane waves:   19886
 k-point  32 :   0.5000 0.0172 0.0000  plane waves:   19904
 k-point  33 :   0.5000 0.0345 0.0000  plane waves:   19890
 k-point  34 :   0.5000 0.0517 0.0000  plane waves:   19908
 k-point  35 :   0.5000 0.0690 0.0000  plane waves:   19906
 k-point  36 :   0.5000 0.0862 0.0000  plane waves:   19898
 k-point  37 :   0.5000 0.1034 0.0000  plane waves:   19862
 k-point  38 :   0.5000 0.1207 0.0000  plane waves:   19904
 k-point  39 :   0.5000 0.1379 0.0000  plane waves:   19900
 k-point  40 :   0.5000 0.1552 0.0000  plane waves:   19894
 k-point  41 :   0.5000 0.1724 0.0000  plane waves:   19892
 k-point  42 :   0.5000 0.1897 0.0000  plane waves:   19888
 k-point  43 :   0.5000 0.2069 0.0000  plane waves:   19854
 k-point  44 :   0.5000 0.2241 0.0000  plane waves:   19870
 k-point  45 :   0.5000 0.2414 0.0000  plane waves:   19858
 k-point  46 :   0.5000 0.2586 0.0000  plane waves:   19828
 k-point  47 :   0.5000 0.2759 0.0000  plane waves:   19822
 k-point  48 :   0.5000 0.2931 0.0000  plane waves:   19828
 k-point  49 :   0.5000 0.3103 0.0000  plane waves:   19840
 k-point  50 :   0.5000 0.3276 0.0000  plane waves:   19854
 k-point  51 :   0.5000 0.3448 0.0000  plane waves:   19842
 k-point  52 :   0.5000 0.3621 0.0000  plane waves:   19852
 k-point  53 :   0.5000 0.3793 0.0000  plane waves:   19832
 k-point  54 :   0.5000 0.3966 0.0000  plane waves:   19848
 k-point  55 :   0.5000 0.4138 0.0000  plane waves:   19826
 k-point  56 :   0.5000 0.4310 0.0000  plane waves:   19866
 k-point  57 :   0.5000 0.4483 0.0000  plane waves:   19862
 k-point  58 :   0.5000 0.4655 0.0000  plane waves:   19848
 k-point  59 :   0.5000 0.4828 0.0000  plane waves:   19868
 k-point  60 :   0.5000 0.5000 0.0000  plane waves:   19884
 k-point  61 :   0.5000 0.5000 0.0000  plane waves:   19884
 k-point  62 :   0.4828 0.5000 0.0000  plane waves:   19868
 k-point  63 :   0.4655 0.5000 0.0000  plane waves:   19872
 k-point  64 :   0.4483 0.5000 0.0000  plane waves:   19868
 k-point  65 :   0.4310 0.5000 0.0000  plane waves:   19864
 k-point  66 :   0.4138 0.5000 0.0000  plane waves:   19860
 k-point  67 :   0.3966 0.5000 0.0000  plane waves:   19880
 k-point  68 :   0.3793 0.5000 0.0000  plane waves:   19884
 k-point  69 :   0.3621 0.5000 0.0000  plane waves:   19884
 k-point  70 :   0.3448 0.5000 0.0000  plane waves:   19880
 k-point  71 :   0.3276 0.5000 0.0000  plane waves:   19872
 k-point  72 :   0.3103 0.5000 0.0000  plane waves:   19868
 k-point  73 :   0.2931 0.5000 0.0000  plane waves:   19856
 k-point  74 :   0.2759 0.5000 0.0000  plane waves:   19836
 k-point  75 :   0.2586 0.5000 0.0000  plane waves:   19846
 k-point  76 :   0.2414 0.5000 0.0000  plane waves:   19862
 k-point  77 :   0.2241 0.5000 0.0000  plane waves:   19872
 k-point  78 :   0.2069 0.5000 0.0000  plane waves:   19874
 k-point  79 :   0.1897 0.5000 0.0000  plane waves:   19866
 k-point  80 :   0.1724 0.5000 0.0000  plane waves:   19862
 k-point  81 :   0.1552 0.5000 0.0000  plane waves:   19868
 k-point  82 :   0.1379 0.5000 0.0000  plane waves:   19872
 k-point  83 :   0.1207 0.5000 0.0000  plane waves:   19896
 k-point  84 :   0.1034 0.5000 0.0000  plane waves:   19904
 k-point  85 :   0.0862 0.5000 0.0000  plane waves:   19908
 k-point  86 :   0.0690 0.5000 0.0000  plane waves:   19926
 k-point  87 :   0.0517 0.5000 0.0000  plane waves:   19926
 k-point  88 :   0.0345 0.5000 0.0000  plane waves:   19930
 k-point  89 :   0.0172 0.5000 0.0000  plane waves:   19922
 k-point  90 :   0.0000 0.5000 0.0000  plane waves:   19930
 k-point  91 :   0.0000 0.5000 0.0000  plane waves:   19930
 k-point  92 :   0.0000 0.4828 0.0000  plane waves:   19906
 k-point  93 :   0.0000 0.4655 0.0000  plane waves:   19906
 k-point  94 :   0.0000 0.4483 0.0000  plane waves:   19888
 k-point  95 :   0.0000 0.4310 0.0000  plane waves:   19874
 k-point  96 :   0.0000 0.4138 0.0000  plane waves:   19868
 k-point  97 :   0.0000 0.3966 0.0000  plane waves:   19868
 k-point  98 :   0.0000 0.3793 0.0000  plane waves:   19858
 k-point  99 :   0.0000 0.3621 0.0000  plane waves:   19858
 k-point 100 :   0.0000 0.3448 0.0000  plane waves:   19852
 k-point 101 :   0.0000 0.3276 0.0000  plane waves:   19846
 k-point 102 :   0.0000 0.3103 0.0000  plane waves:   19846
 k-point 103 :   0.0000 0.2931 0.0000  plane waves:   19826
 k-point 104 :   0.0000 0.2759 0.0000  plane waves:   19831
 k-point 105 :   0.0000 0.2586 0.0000  plane waves:   19839
 k-point 106 :   0.0000 0.2414 0.0000  plane waves:   19831
 k-point 107 :   0.0000 0.2241 0.0000  plane waves:   19869
 k-point 108 :   0.0000 0.2069 0.0000  plane waves:   19875
 k-point 109 :   0.0000 0.1897 0.0000  plane waves:   19859
 k-point 110 :   0.0000 0.1724 0.0000  plane waves:   19867
 k-point 111 :   0.0000 0.1552 0.0000  plane waves:   19865
 k-point 112 :   0.0000 0.1379 0.0000  plane waves:   19881
 k-point 113 :   0.0000 0.1207 0.0000  plane waves:   19887
 k-point 114 :   0.0000 0.1034 0.0000  plane waves:   19887
 k-point 115 :   0.0000 0.0862 0.0000  plane waves:   19875
 k-point 116 :   0.0000 0.0690 0.0000  plane waves:   19885
 k-point 117 :   0.0000 0.0517 0.0000  plane waves:   19893
 k-point 118 :   0.0000 0.0345 0.0000  plane waves:   19887
 k-point 119 :   0.0000 0.0172 0.0000  plane waves:   19897
 k-point 120 :   0.0000 0.0000 0.0000  plane waves:   19903

 maximum and minimum number of plane-waves per node :      5058     4855

 maximum number of plane-waves:     19930
 maximum index in each direction: 
   IXMAX=   25   IYMAX=    5   IZMAX=   35
   IXMIN=  -25   IYMIN=   -5   IZMIN=  -35


 real space projection operators:
  total allocation   :       9743.23 KBytes
  max/ min on nodes  :       2447.14       2424.45


 parallel 3D FFT for wavefunctions:
    minimum data exchange during FFTs selected (reduces bandwidth)
 parallel 3D FFT for charge:
    minimum data exchange during FFTs selected (reduces bandwidth)


 total amount of memory used by VASP MPI-rank0   427123. kBytes
=======================================================================

   base      :      30000. kBytes
   nonlr-proj:       5374. kBytes
   fftplans  :      30071. kBytes
   grid      :      16193. kBytes
   one-center:         77. kBytes
   wavefun   :     345408. kBytes
 
     INWAV:  cpu time      0.0000: real time      0.0000
 initial charge density was supplied:
 number of electron     140.0000003 magnetization 
 keeping initial charge density in first step


--------------------------------------------------------------------------------------------------------


 Maximum index for non-local projection operator         1716
 Maximum index for augmentation-charges         7689 (set IRDMAX)


--------------------------------------------------------------------------------------------------------


 First call to EWALD:  gamma=   0.150
 Maximum number of real-space cells 2x 8x 2
 Maximum number of reciprocal cells 4x 1x 5

    FEWALD:  cpu time      0.0020: real time      0.0020


--------------------------------------- Ionic step        1  -------------------------------------------




--------------------------------------- Iteration      1(   1)  ---------------------------------------


    POTLOK:  cpu time      0.3751: real time      0.4632
    SETDIJ:  cpu time      0.8680: real time      0.8689
     EDDAV:  cpu time    383.4838: real time    383.9592
       DOS:  cpu time      0.0415: real time      0.0416
    --------------------------------------------
      LOOP:  cpu time    384.7685: real time    385.3329

 eigenvalue-minimisations  : 34112
 total energy-change (2. order) : 0.6292364E+03  (-0.3401504E+04)
 number of electron     140.0000003 magnetization 
 augmentation part      140.0000003 magnetization 

 Free energy of the ion-electron system (eV)
  ---------------------------------------------------
  alpha Z        PSCENC =        66.99798409
  Ewald energy   TEWEN  =     29846.57578200
  -Hartree energ DENC   =    -38446.02547803
  -exchange      EXHF   =         0.00000000
  -V(xc)+E(xc)   XCENC  =      -355.98798962
  PAW double counting   =     14071.25236194   -13801.97065516
  entropy T*S    EENTRO =        -0.00062222
  eigenvalues    EBANDS =        27.28412428
  atomic energy  EATOM  =      9221.11089956
  Solvation  Ediel_sol  =         0.00000000
  ---------------------------------------------------
  free energy    TOTEN  =       629.23640684 eV

  energy without entropy =      629.23702906  energy(sigma->0) =      629.23671795


--------------------------------------------------------------------------------------------------------




--------------------------------------- Iteration      1(   2)  ---------------------------------------


     EDDAV:  cpu time    445.4002: real time    445.9180
       DOS:  cpu time      0.0334: real time      0.0334
    --------------------------------------------
      LOOP:  cpu time    445.4335: real time    445.9514

 eigenvalue-minimisations  : 43348
 total energy-change (2. order) :-0.6725382E+03  (-0.6283876E+03)
 number of electron     140.0000003 magnetization 
 augmentation part      140.0000003 magnetization 

 Free energy of the ion-electron system (eV)
  ---------------------------------------------------
  alpha Z        PSCENC =        66.99798409
  Ewald energy   TEWEN  =     29846.57578200
  -Hartree energ DENC   =    -38446.02547803
  -exchange      EXHF   =         0.00000000
  -V(xc)+E(xc)   XCENC  =      -355.98798962
  PAW double counting   =     14071.25236194   -13801.97065516
  entropy T*S    EENTRO =        -0.00012383
  eigenvalues    EBANDS =      -645.25452693
  atomic energy  EATOM  =      9221.11089956
  Solvation  Ediel_sol  =         0.00000000
  ---------------------------------------------------
  free energy    TOTEN  =       -43.30174597 eV

  energy without entropy =      -43.30162214  energy(sigma->0) =      -43.30168406


--------------------------------------------------------------------------------------------------------




--------------------------------------- Iteration      1(   3)  ---------------------------------------


     EDDAV:  cpu time    512.8856: real time    513.4617
       DOS:  cpu time      0.0344: real time      0.0344
    --------------------------------------------
      LOOP:  cpu time    512.9200: real time    513.4961

 eigenvalue-minimisations  : 45016
 total energy-change (2. order) :-0.7226601E+02  (-0.6979049E+02)
 number of electron     140.0000003 magnetization 
 augmentation part      140.0000003 magnetization 

 Free energy of the ion-electron system (eV)
  ---------------------------------------------------
  alpha Z        PSCENC =        66.99798409
  Ewald energy   TEWEN  =     29846.57578200
  -Hartree energ DENC   =    -38446.02547803
  -exchange      EXHF   =         0.00000000
  -V(xc)+E(xc)   XCENC  =      -355.98798962
  PAW double counting   =     14071.25236194   -13801.97065516
  entropy T*S    EENTRO =        -0.00000000
  eigenvalues    EBANDS =      -717.52066293
  atomic energy  EATOM  =      9221.11089956
  Solvation  Ediel_sol  =         0.00000000
  ---------------------------------------------------
  free energy    TOTEN  =      -115.56775814 eV

  energy without entropy =     -115.56775814  energy(sigma->0) =     -115.56775814


--------------------------------------------------------------------------------------------------------




--------------------------------------- Iteration      1(   4)  ---------------------------------------


     EDDAV:  cpu time    487.5843: real time    488.1330
       DOS:  cpu time      0.0371: real time      0.0371
    --------------------------------------------
      LOOP:  cpu time    487.6214: real time    488.1701

 eigenvalue-minimisations  : 43032
 total energy-change (2. order) :-0.3100881E+01  (-0.3086551E+01)
 number of electron     140.0000003 magnetization 
 augmentation part      140.0000003 magnetization 

 Free energy of the ion-electron system (eV)
  ---------------------------------------------------
  alpha Z        PSCENC =        66.99798409
  Ewald energy   TEWEN  =     29846.57578200
  -Hartree energ DENC   =    -38446.02547803
  -exchange      EXHF   =         0.00000000
  -V(xc)+E(xc)   XCENC  =      -355.98798962
  PAW double counting   =     14071.25236194   -13801.97065516
  entropy T*S    EENTRO =        -0.00000000
  eigenvalues    EBANDS =      -720.62154395
  atomic energy  EATOM  =      9221.11089956
  Solvation  Ediel_sol  =         0.00000000
  ---------------------------------------------------
  free energy    TOTEN  =      -118.66863917 eV

  energy without entropy =     -118.66863917  energy(sigma->0) =     -118.66863917


--------------------------------------------------------------------------------------------------------




--------------------------------------- Iteration      1(   5)  ---------------------------------------


     EDDAV:  cpu time    471.6289: real time    472.1617
       DOS:  cpu time      0.0316: real time      0.0316
    --------------------------------------------
      LOOP:  cpu time    471.6605: real time    472.1933

 eigenvalue-minimisations  : 44456
 total energy-change (2. order) :-0.7129810E-01  (-0.7127582E-01)
 number of electron     140.0000003 magnetization 
 augmentation part      140.0000003 magnetization 

 Free energy of the ion-electron system (eV)
  ---------------------------------------------------
  alpha Z        PSCENC =        66.99798409
  Ewald energy   TEWEN  =     29846.57578200
  -Hartree energ DENC   =    -38446.02547803
  -exchange      EXHF   =         0.00000000
  -V(xc)+E(xc)   XCENC  =      -355.98798962
  PAW double counting   =     14071.25236194   -13801.97065516
  entropy T*S    EENTRO =        -0.00000000
  eigenvalues    EBANDS =      -720.69284206
  atomic energy  EATOM  =      9221.11089956
  Solvation  Ediel_sol  =         0.00000000
  ---------------------------------------------------
  free energy    TOTEN  =      -118.73993727 eV

  energy without entropy =     -118.73993727  energy(sigma->0) =     -118.73993727


--------------------------------------------------------------------------------------------------------




--------------------------------------- Iteration      1(   6)  ---------------------------------------


     EDDAV:  cpu time    487.9065: real time    488.4651
       DOS:  cpu time      0.0341: real time      0.0341
    --------------------------------------------
      LOOP:  cpu time    487.9406: real time    488.4991

 eigenvalue-minimisations  : 46700
 total energy-change (2. order) :-0.2589600E-02  (-0.2589520E-02)
 number of electron     140.0000003 magnetization 
 augmentation part      140.0000003 magnetization 

 Free energy of the ion-electron system (eV)
  ---------------------------------------------------
  alpha Z        PSCENC =        66.99798409
  Ewald energy   TEWEN  =     29846.57578200
  -Hartree energ DENC   =    -38446.02547803
  -exchange      EXHF   =         0.00000000
  -V(xc)+E(xc)   XCENC  =      -355.98798962
  PAW double counting   =     14071.25236194   -13801.97065516
  entropy T*S    EENTRO =        -0.00000000
  eigenvalues    EBANDS =      -720.69543166
  atomic energy  EATOM  =      9221.11089956
  Solvation  Ediel_sol  =         0.00000000
  ---------------------------------------------------
  free energy    TOTEN  =      -118.74252687 eV

  energy without entropy =     -118.74252687  energy(sigma->0) =     -118.74252687


--------------------------------------------------------------------------------------------------------




--------------------------------------- Iteration      1(   7)  ---------------------------------------


     EDDAV:  cpu time    277.8587: real time    278.1758
       DOS:  cpu time      0.0130: real time      0.0130
    --------------------------------------------
      LOOP:  cpu time    277.8717: real time    278.1888

 eigenvalue-minimisations  : 46732
 total energy-change (2. order) :-0.1135328E-03  (-0.1135320E-03)
 number of electron     140.0000003 magnetization 
 augmentation part      140.0000003 magnetization 

 Free energy of the ion-electron system (eV)
  ---------------------------------------------------
  alpha Z        PSCENC =        66.99798409
  Ewald energy   TEWEN  =     29846.57578200
  -Hartree energ DENC   =    -38446.02547803
  -exchange      EXHF   =         0.00000000
  -V(xc)+E(xc)   XCENC  =      -355.98798962
  PAW double counting   =     14071.25236194   -13801.97065516
  entropy T*S    EENTRO =        -0.00000000
  eigenvalues    EBANDS =      -720.69554519
  atomic energy  EATOM  =      9221.11089956
  Solvation  Ediel_sol  =         0.00000000
  ---------------------------------------------------
  free energy    TOTEN  =      -118.74264041 eV

  energy without entropy =     -118.74264041  energy(sigma->0) =     -118.74264041


--------------------------------------------------------------------------------------------------------




--------------------------------------- Iteration      1(   8)  ---------------------------------------


     EDDAV:  cpu time    208.2386: real time    208.5004
       DOS:  cpu time      0.0126: real time      0.0126
    --------------------------------------------
      LOOP:  cpu time    208.2512: real time    208.5130

 eigenvalue-minimisations  : 46412
 total energy-change (2. order) :-0.5532653E-05  (-0.5532738E-05)
 number of electron     140.0000003 magnetization 
 augmentation part      140.0000003 magnetization 

 Free energy of the ion-electron system (eV)
  ---------------------------------------------------
  alpha Z        PSCENC =        66.99798409
  Ewald energy   TEWEN  =     29846.57578200
  -Hartree energ DENC   =    -38446.02547803
  -exchange      EXHF   =         0.00000000
  -V(xc)+E(xc)   XCENC  =      -355.98798962
  PAW double counting   =     14071.25236194   -13801.97065516
  entropy T*S    EENTRO =        -0.00000000
  eigenvalues    EBANDS =      -720.69555072
  atomic energy  EATOM  =      9221.11089956
  Solvation  Ediel_sol  =         0.00000000
  ---------------------------------------------------
  free energy    TOTEN  =      -118.74264594 eV

  energy without entropy =     -118.74264594  energy(sigma->0) =     -118.74264594


--------------------------------------------------------------------------------------------------------




--------------------------------------- Iteration      1(   9)  ---------------------------------------


     EDDAV:  cpu time    155.9062: real time    156.1069
       DOS:  cpu time      0.0130: real time      0.0130
    --------------------------------------------
      LOOP:  cpu time    155.9192: real time    156.1199

 eigenvalue-minimisations  : 31516
 total energy-change (2. order) :-0.1668013E-06  (-0.1667055E-06)
 number of electron     140.0000003 magnetization 
 augmentation part      140.0000003 magnetization 

 Free energy of the ion-electron system (eV)
  ---------------------------------------------------
  alpha Z        PSCENC =        66.99798409
  Ewald energy   TEWEN  =     29846.57578200
  -Hartree energ DENC   =    -38446.02547803
  -exchange      EXHF   =         0.00000000
  -V(xc)+E(xc)   XCENC  =      -355.98798962
  PAW double counting   =     14071.25236194   -13801.97065516
  entropy T*S    EENTRO =        -0.00000000
  eigenvalues    EBANDS =      -720.69555089
  atomic energy  EATOM  =      9221.11089956
  Solvation  Ediel_sol  =         0.00000000
  ---------------------------------------------------
  free energy    TOTEN  =      -118.74264611 eV

  energy without entropy =     -118.74264611  energy(sigma->0) =     -118.74264611


--------------------------------------------------------------------------------------------------------




--------------------------------------- Iteration      1(  10)  ---------------------------------------


     EDDAV:  cpu time    130.5257: real time    130.6930
       DOS:  cpu time      0.0132: real time      0.0132
    --------------------------------------------
      LOOP:  cpu time    130.5389: real time    130.7062

 eigenvalue-minimisations  : 24388
 total energy-change (2. order) :-0.9116775E-08  (-0.9213596E-08)
 number of electron     140.0000003 magnetization 
 augmentation part      140.0000003 magnetization 

 Free energy of the ion-electron system (eV)
  ---------------------------------------------------
  alpha Z        PSCENC =        66.99798409
  Ewald energy   TEWEN  =     29846.57578200
  -Hartree energ DENC   =    -38446.02547803
  -exchange      EXHF   =         0.00000000
  -V(xc)+E(xc)   XCENC  =      -355.98798962
  PAW double counting   =     14071.25236194   -13801.97065516
  entropy T*S    EENTRO =        -0.00000000
  eigenvalues    EBANDS =      -720.69555090
  atomic energy  EATOM  =      9221.11089956
  Solvation  Ediel_sol  =         0.00000000
  ---------------------------------------------------
  free energy    TOTEN  =      -118.74264612 eV

  energy without entropy =     -118.74264612  energy(sigma->0) =     -118.74264612


--------------------------------------------------------------------------------------------------------




--------------------------------------- Iteration      1(  11)  ---------------------------------------


     EDDAV:  cpu time    121.1907: real time    121.3454
       DOS:  cpu time      0.0125: real time      0.0125
    --------------------------------------------
      LOOP:  cpu time    121.2032: real time    121.3579

 eigenvalue-minimisations  : 21696
 total energy-change (2. order) :-0.2713932E-08  (-0.2625684E-08)
 number of electron     140.0000003 magnetization 
 augmentation part      140.0000003 magnetization 

 Free energy of the ion-electron system (eV)
  ---------------------------------------------------
  alpha Z        PSCENC =        66.99798409
  Ewald energy   TEWEN  =     29846.57578200
  -Hartree energ DENC   =    -38446.02547803
  -exchange      EXHF   =         0.00000000
  -V(xc)+E(xc)   XCENC  =      -355.98798962
  PAW double counting   =     14071.25236194   -13801.97065516
  entropy T*S    EENTRO =        -0.00000000
  eigenvalues    EBANDS =      -720.69555090
  atomic energy  EATOM  =      9221.11089956
  Solvation  Ediel_sol  =         0.00000000
  ---------------------------------------------------
  free energy    TOTEN  =      -118.74264612 eV

  energy without entropy =     -118.74264612  energy(sigma->0) =     -118.74264612


--------------------------------------------------------------------------------------------------------




--------------------------------------- Iteration      1(  12)  ---------------------------------------


     EDDAV:  cpu time    118.0050: real time    118.1551
       DOS:  cpu time      0.0132: real time      0.0132
    --------------------------------------------
      LOOP:  cpu time    118.0182: real time    118.1684

 eigenvalue-minimisations  : 20832
 total energy-change (2. order) :-0.1280569E-08  (-0.1247228E-08)
 number of electron     140.0000003 magnetization 
 augmentation part      140.0000003 magnetization 

 Free energy of the ion-electron system (eV)
  ---------------------------------------------------
  alpha Z        PSCENC =        66.99798409
  Ewald energy   TEWEN  =     29846.57578200
  -Hartree energ DENC   =    -38446.02547803
  -exchange      EXHF   =         0.00000000
  -V(xc)+E(xc)   XCENC  =      -355.98798962
  PAW double counting   =     14071.25236194   -13801.97065516
  entropy T*S    EENTRO =        -0.00000000
  eigenvalues    EBANDS =      -720.69555090
  atomic energy  EATOM  =      9221.11089956
  Solvation  Ediel_sol  =         0.00000000
  ---------------------------------------------------
  free energy    TOTEN  =      -118.74264612 eV

  energy without entropy =     -118.74264612  energy(sigma->0) =     -118.74264612


--------------------------------------------------------------------------------------------------------




--------------------------------------- Iteration      1(  13)  ---------------------------------------


     EDDAV:  cpu time    116.9234: real time    117.0706
       DOS:  cpu time      0.0130: real time      0.0130
    --------------------------------------------
      LOOP:  cpu time    116.9364: real time    117.0836

 eigenvalue-minimisations  : 20512
 total energy-change (2. order) :-0.6184564E-09  (-0.6627102E-09)
 number of electron     140.0000003 magnetization 
 augmentation part      140.0000003 magnetization 

 Free energy of the ion-electron system (eV)
  ---------------------------------------------------
  alpha Z        PSCENC =        66.99798409
  Ewald energy   TEWEN  =     29846.57578200
  -Hartree energ DENC   =    -38446.02547803
  -exchange      EXHF   =         0.00000000
  -V(xc)+E(xc)   XCENC  =      -355.98798962
  PAW double counting   =     14071.25236194   -13801.97065516
  entropy T*S    EENTRO =        -0.00000000
  eigenvalues    EBANDS =      -720.69555090
  atomic energy  EATOM  =      9221.11089956
  Solvation  Ediel_sol  =         0.00000000
  ---------------------------------------------------
  free energy    TOTEN  =      -118.74264612 eV

  energy without entropy =     -118.74264612  energy(sigma->0) =     -118.74264612


--------------------------------------------------------------------------------------------------------




 average (electrostatic) potential at core
  the test charge radii are     1.2538  0.9791  1.1897
  (the norm of the test charge is              1.0000)
       1 -43.6006       2 -43.6009       3 -43.6003       4 -43.6006       5 -92.6708
       6 -92.6692       7 -92.6705       8 -92.6707       9 -92.3072      10 -92.3072
      11 -95.9007      12 -95.8998      13 -95.7637      14 -95.7629      15 -95.9011
      16 -95.9011      17 -95.7645      18 -95.7638      19 -95.7216      20 -95.7206
 
 
 
 E-fermi :  -1.1148     XC(G=0):  -3.3069     alpha+bet : -3.4031

 Fermi energy:        -1.1147721770

 k-point     1 :       0.0000    0.0000    0.0000
  band No.  band energies     occupation 
      1     -14.0067      2.00000
      2     -13.7460      2.00000
      3     -13.5901      2.00000
      4     -13.1175      2.00000
      5     -13.1134      2.00000
      6     -12.8803      2.00000
      7     -12.8679      2.00000
      8     -12.8532      2.00000
      9     -12.7293      2.00000
     10     -12.5250      2.00000
     11      -7.1577      2.00000
     12      -6.9380      2.00000
     13      -6.7986      2.00000
     14      -6.7502      2.00000
     15      -6.4824      2.00000
     16      -6.4426      2.00000
     17      -6.3830      2.00000
     18      -5.8603      2.00000
     19      -5.6701      2.00000
     20      -5.3018      2.00000
     21      -5.2257      2.00000
     22      -4.9052      2.00000
     23      -4.8703      2.00000
     24      -4.8531      2.00000
     25      -4.8501      2.00000
     26      -4.7996      2.00000
     27      -4.7469      2.00000
     28      -4.6509      2.00000
     29      -4.4750      2.00000
     30      -4.4723      2.00000
     31      -4.1923      2.00000
     32      -4.0915      2.00000
     33      -4.0132      2.00000
     34      -3.8886      2.00000
     35      -3.7936      2.00000
     36      -3.7152      2.00000
     37      -3.6722      2.00000
     38      -3.6700      2.00000
     39      -3.4844      2.00000
     40      -3.4085      2.00000
     41      -3.3305      2.00000
     42      -3.2711      2.00000
     43      -3.2564      2.00000
     44      -3.2059      2.00000
     45      -3.0997      2.00000
     46      -2.9875      2.00000
     47      -2.9607      2.00000
     48      -2.9543      2.00000
     49      -2.8724      2.00000
     50      -2.7622      2.00000
     51      -2.7123      2.00000
     52      -2.5680      2.00000
     53      -2.5654      2.00000
     54      -2.4952      2.00000
     55      -2.4340      2.00000
     56      -2.4134      2.00000
     57      -2.3962      2.00000
     58      -2.3375      2.00000
     59      -2.2571      2.00000
     60      -2.2322      2.00000
     61      -2.0666      2.00000
     62      -1.9432      2.00000
     63      -1.9300      2.00000
     64      -1.9095      2.00000
     65      -1.8403      2.00000
     66      -1.6673      2.00000
     67      -1.5452      2.00000
     68      -1.4802      2.00000
     69      -1.4090      2.00000
     70      -1.1549      2.00000
     71      -1.0703      0.00000
     72      -1.0529      0.00000
     73      -0.3830      0.00000
     74      -0.2819      0.00000
     75      -0.0901      0.00000
     76       0.0063      0.00000
     77       0.1510      0.00000
     78       0.2488      0.00000
     79       0.3389      0.00000
     80       0.4615      0.00000
     81       0.5614      0.00000
     82       0.6179      0.00000
     83       1.0325      0.00000
     84       1.0347      0.00000
     85       1.2068      0.00000
     86       1.5398      0.00000
     87       2.0246      0.00000
     88       2.1275      0.00000
     89       2.1496      0.00000
     90       2.2239      0.00000
     91       2.3201      0.00000
     92       2.3471      0.00000
     93       2.4373      0.00000
     94       2.7276      0.00000
     95       2.7391      0.00000
     96       2.7524      0.00000
     97       2.7787      0.00000
     98       2.8321      0.00000
     99       3.0948      0.00000
    100       3.2599      0.00000
    101       3.3249      0.00000
    102       3.5004      0.00000
    103       3.6040      0.00000
    104       3.6473      0.00000
    105       3.6873      0.00000
    106       3.7937      0.00000
    107       3.8013      0.00000
    108       3.9301      0.00000
    109       3.9896      0.00000
    110       4.1401      0.00000
    111       4.1546      0.00000
    112       4.3364      0.00000
    113       4.3651      0.00000
    114       4.3838      0.00000
    115       4.5926      0.00000
    116       4.6117      0.00000
    117       4.7448      0.00000
    118       4.8303      0.00000
    119       4.8757      0.00000
    120       4.9260      0.00000
    121       5.0081      0.00000
    122       5.0945      0.00000
    123       5.1542      0.00000
    124       5.1672      0.00000
    125       5.2708      0.00000
    126       5.4089      0.00000
    127       5.5054      0.00000
    128       5.6981      0.00000
    129       5.7073      0.00000
    130       5.7478      0.00000
    131       5.7611      0.00000
    132       5.8439      0.00000
    133       5.9493      0.00000
    134       5.9839      0.00000
    135       6.0222      0.00000
    136       6.1810      0.00000
    137       6.2081      0.00000
    138       6.3190      0.00000
    139       6.4058      0.00000
    140       6.4582      0.00000

 k-point     2 :       0.0172    0.0000    0.0000
  band No.  band energies     occupation 
      1     -14.0066      2.00000
      2     -13.7467      2.00000
      3     -13.5893      2.00000
      4     -13.1174      2.00000
      5     -13.1137      2.00000
      6     -12.8821      2.00000
      7     -12.8699      2.00000
      8     -12.8491      2.00000
      9     -12.7294      2.00000
     10     -12.5251      2.00000
     11      -7.1576      2.00000
     12      -6.9383      2.00000
     13      -6.7986      2.00000
     14      -6.7502      2.00000
     15      -6.4822      2.00000
     16      -6.4429      2.00000
     17      -6.3822      2.00000
[...]
      1     -14.0067      2.00000
      2     -13.7460      2.00000
      3     -13.5901      2.00000
      4     -13.1175      2.00000
      5     -13.1134      2.00000
      6     -12.8803      2.00000
      7     -12.8679      2.00000
      8     -12.8532      2.00000
      9     -12.7293      2.00000
     10     -12.5250      2.00000
     11      -7.1577      2.00000
     12      -6.9380      2.00000
     13      -6.7986      2.00000
     14      -6.7502      2.00000
     15      -6.4824      2.00000
     16      -6.4426      2.00000
     17      -6.3830      2.00000
     18      -5.8603      2.00000
     19      -5.6701      2.00000
     20      -5.3018      2.00000
     21      -5.2257      2.00000
     22      -4.9052      2.00000
     23      -4.8703      2.00000
     24      -4.8531      2.00000
     25      -4.8501      2.00000
     26      -4.7996      2.00000
     27      -4.7469      2.00000
     28      -4.6509      2.00000
     29      -4.4750      2.00000
     30      -4.4723      2.00000
     31      -4.1923      2.00000
     32      -4.0915      2.00000
     33      -4.0132      2.00000
     34      -3.8886      2.00000
     35      -3.7936      2.00000
     36      -3.7152      2.00000
     37      -3.6722      2.00000
     38      -3.6700      2.00000
     39      -3.4844      2.00000
     40      -3.4085      2.00000
     41      -3.3305      2.00000
     42      -3.2711      2.00000
     43      -3.2564      2.00000
     44      -3.2059      2.00000
     45      -3.0997      2.00000
     46      -2.9875      2.00000
     47      -2.9607      2.00000
     48      -2.9543      2.00000
     49      -2.8724      2.00000
     50      -2.7622      2.00000
     51      -2.7123      2.00000
     52      -2.5680      2.00000
     53      -2.5654      2.00000
     54      -2.4952      2.00000
     55      -2.4340      2.00000
     56      -2.4134      2.00000
     57      -2.3962      2.00000
     58      -2.3375      2.00000
     59      -2.2571      2.00000
     60      -2.2322      2.00000
     61      -2.0666      2.00000
     62      -1.9432      2.00000
     63      -1.9300      2.00000
     64      -1.9095      2.00000
     65      -1.8403      2.00000
     66      -1.6673      2.00000
     67      -1.5452      2.00000
     68      -1.4802      2.00000
     69      -1.4090      2.00000
     70      -1.1549      2.00000
     71      -1.0703      0.00000
     72      -1.0529      0.00000
     73      -0.3830      0.00000
     74      -0.2819      0.00000
     75      -0.0901      0.00000
     76       0.0063      0.00000
     77       0.1510      0.00000
     78       0.2488      0.00000
     79       0.3389      0.00000
     80       0.4615      0.00000
     81       0.5614      0.00000
     82       0.6179      0.00000
     83       1.0325      0.00000
     84       1.0347      0.00000
     85       1.2068      0.00000
     86       1.5398      0.00000
     87       2.0246      0.00000
     88       2.1275      0.00000
     89       2.1496      0.00000
     90       2.2239      0.00000
     91       2.3201      0.00000
     92       2.3471      0.00000
     93       2.4373      0.00000
     94       2.7276      0.00000
     95       2.7391      0.00000
     96       2.7524      0.00000
     97       2.7787      0.00000
     98       2.8321      0.00000
     99       3.0948      0.00000
    100       3.2599      0.00000
    101       3.3249      0.00000
    102       3.5004      0.00000
    103       3.6040      0.00000
    104       3.6473      0.00000
    105       3.6873      0.00000
    106       3.7937      0.00000
    107       3.8013      0.00000
    108       3.9301      0.00000
    109       3.9896      0.00000
    110       4.1401      0.00000
    111       4.1546      0.00000
    112       4.3364      0.00000
    113       4.3651      0.00000
    114       4.3838      0.00000
    115       4.5926      0.00000
    116       4.6117      0.00000
    117       4.7448      0.00000
    118       4.8303      0.00000
    119       4.8757      0.00000
    120       4.9260      0.00000
    121       5.0081      0.00000
    122       5.0945      0.00000
    123       5.1542      0.00000
    124       5.1672      0.00000
    125       5.2708      0.00000
    126       5.4089      0.00000
    127       5.5054      0.00000
    128       5.6981      0.00000
    129       5.7073      0.00000
    130       5.7478      0.00000
    131       5.7611      0.00000
    132       5.8439      0.00000
    133       5.9493      0.00000
    134       5.9839      0.00000
    135       6.0222      0.00000
    136       6.1810      0.00000
    137       6.2081      0.00000
    138       6.3190      0.00000
    139       6.4058      0.00000
    140       6.4579      0.00000


--------------------------------------------------------------------------------------------------------


 soft charge-density along one line, spin component           1
         0         1         2         3         4         5         6         7         8         9
 total charge-density along one line
 
 pseudopotential strength for first ion, spin component:           1
 -7.681   0.002   0.000   0.000   0.000  -9.202   0.002   0.000
  0.002  -7.688   0.000  -0.000  -0.000   0.002  -9.211   0.000
  0.000   0.000  -7.686   0.001  -0.002   0.000   0.000  -9.208
  0.000  -0.000   0.001  -7.683   0.003   0.000  -0.000   0.001
  0.000  -0.000  -0.002   0.003  -7.681   0.000  -0.000  -0.002
 -9.202   0.002   0.000   0.000   0.000 -11.005   0.003   0.000
  0.002  -9.211   0.000  -0.000  -0.000   0.003 -11.017   0.000
  0.000   0.000  -9.208   0.001  -0.002   0.000   0.000 -11.013
  0.000  -0.000   0.001  -9.205   0.003   0.000  -0.000   0.001
  0.000  -0.000  -0.002   0.003  -9.202   0.000  -0.000  -0.003
  0.000  -0.000   0.002  -0.002  -0.004   0.000  -0.000   0.002
  0.000  -0.000   0.003  -0.003  -0.007   0.000  -0.000   0.004
  0.005  -0.006   0.000   0.000   0.000   0.006  -0.007   0.000
  0.000  -0.000  -0.007   0.005   0.001   0.000  -0.000  -0.008
 -0.000   0.000  -0.004  -0.003   0.007  -0.000   0.000  -0.005
 -0.005   0.008  -0.000  -0.000  -0.000  -0.006   0.009  -0.000
 -0.000   0.000   0.009  -0.005  -0.002  -0.000   0.000   0.011
  0.000  -0.000   0.004   0.004  -0.008   0.000  -0.000   0.005
 total augmentation occupancy for first ion, spin component:           1
  0.800   0.000   0.000   0.000   0.000   0.000   0.000   0.000   0.000   0.000   0.000   0.000   0.000   0.000   0.000   0.000
  0.000   0.800   0.000   0.000   0.000   0.000   0.000   0.000   0.000   0.000   0.000   0.000   0.000   0.000   0.000   0.000
  0.000   0.000   0.800   0.000   0.000   0.000   0.000   0.000   0.000   0.000   0.000   0.000   0.000   0.000   0.000   0.000
  0.000   0.000   0.000   0.800   0.000   0.000   0.000   0.000   0.000   0.000   0.000   0.000   0.000   0.000   0.000   0.000
  0.000   0.000   0.000   0.000   0.800   0.000   0.000   0.000   0.000   0.000   0.000   0.000   0.000   0.000   0.000   0.000
  0.000   0.000   0.000   0.000   0.000   0.000   0.000   0.000   0.000   0.000   0.000   0.000   0.000   0.000   0.000   0.000
  0.000   0.000   0.000   0.000   0.000   0.000   0.000   0.000   0.000   0.000   0.000   0.000   0.000   0.000   0.000   0.000
  0.000   0.000   0.000   0.000   0.000   0.000   0.000   0.000   0.000   0.000   0.000   0.000   0.000   0.000   0.000   0.000
  0.000   0.000   0.000   0.000   0.000   0.000   0.000   0.000   0.000   0.000   0.000   0.000   0.000   0.000   0.000   0.000
  0.000   0.000   0.000   0.000   0.000   0.000   0.000   0.000   0.000   0.000   0.000   0.000   0.000   0.000   0.000   0.000
  0.000   0.000   0.000   0.000   0.000   0.000   0.000   0.000   0.000   0.000   1.000   0.000   0.000   0.000   0.000   0.000
  0.000   0.000   0.000   0.000   0.000   0.000   0.000   0.000   0.000   0.000   0.000   0.000   0.000   0.000   0.000   0.000
  0.000   0.000   0.000   0.000   0.000   0.000   0.000   0.000   0.000   0.000   0.000   0.000   0.000   0.000   0.000   0.000
  0.000   0.000   0.000   0.000   0.000   0.000   0.000   0.000   0.000   0.000   0.000   0.000   0.000   0.000   0.000   0.000
  0.000   0.000   0.000   0.000   0.000   0.000   0.000   0.000   0.000   0.000   0.000   0.000   0.000   0.000   0.000   0.000
  0.000   0.000   0.000   0.000   0.000   0.000   0.000   0.000   0.000   0.000   0.000   0.000   0.000   0.000   0.000   0.000
  0.000   0.000   0.000   0.000   0.000   0.000   0.000   0.000   0.000   0.000   0.000   0.000   0.000   0.000   0.000   0.000
  0.000   0.000   0.000   0.000   0.000   0.000   0.000   0.000   0.000   0.000   0.000   0.000   0.000   0.000   0.000   0.000


------------------------ aborting loop because EDIFF is reached ----------------------------------------





 total charge

# of ion       s       p       d       tot
------------------------------------------
    1        0.561   0.663   3.291   4.515
    2        0.561   0.663   3.291   4.515
    3        0.561   0.663   3.291   4.515
    4        0.561   0.663   3.291   4.515
    5        0.456   0.540   8.421   9.417
    6        0.456   0.540   8.420   9.416
    7        0.456   0.540   8.421   9.417
    8        0.456   0.540   8.421   9.417
    9        0.411   0.473   8.383   9.267
   10        0.411   0.473   8.383   9.267
   11        1.371   1.955   0.063   3.389
   12        1.371   1.954   0.063   3.388
   13        1.373   1.978   0.062   3.413
   14        1.373   1.978   0.062   3.413
   15        1.371   1.954   0.063   3.389
   16        1.371   1.954   0.063   3.388
   17        1.373   1.978   0.062   3.413
   18        1.373   1.978   0.062   3.413
   19        1.364   1.999   0.058   3.421
   20        1.364   1.999   0.058   3.420
--------------------------------------------------
tot         18.594  25.484  64.229 108.307
 
    CHARGE:  cpu time      2.5972: real time      2.5986
    FORLOC:  cpu time      0.1086: real time      0.1086
    FORNL :  cpu time     38.1526: real time     38.1824
    STRESS:  cpu time    117.0562: real time    117.1257
    FORCOR:  cpu time      0.1757: real time      0.1759
    FORHAR:  cpu time      0.0565: real time      0.0565
    OFIELD:  cpu time      0.0009: real time      0.0009

  FORCE on cell =-STRESS in cart. coord.  units (eV):
  Direction    XX          YY          ZZ          XY          YZ          ZX
  --------------------------------------------------------------------------------------
  Alpha Z    66.99798    66.99798    66.99798
  Ewald   34419.20487 35129.83058-39702.47554    -0.00000     0.00022     0.12264
  Hartree 36221.56347 37000.25795-34766.94931    -0.00000     0.00008     0.01756
  E(xc)    -657.93571  -657.40019  -660.82431     0.00000    -0.00000    -0.00189
  Local  -73090.49965-74587.88605 71992.30355     0.00000    -0.00027    -0.13665
  n-local  1011.87416   996.99298  1015.68810     0.00000     0.00000     0.01652
  augment   796.36952   812.18618   813.41427     0.00000     0.00001    -0.00489
  Kinetic  1218.52087  1229.75564  1230.83793    -0.00000     0.00002     0.00276
  Fock        0.00000     0.00000     0.00000     0.00000     0.00000     0.00000
  -------------------------------------------------------------------------------------
  Total     -13.90449    -9.26492   -11.00732     0.00000    -0.00000     0.01605
  in kB     -13.44508    -8.95880   -10.64363     0.00000    -0.00000     0.01552
  external pressure =      -11.02 kB  Pullay stress =        0.00 kB


 VOLUME and BASIS-vectors are now :
 -----------------------------------------------------------------------------
  energy-cutoff  :      303.22
  volume of cell :     1656.92
      direct lattice vectors                 reciprocal lattice vectors
    17.803673428  0.000000000  0.000000000     0.056168184  0.000000000  0.000000000
     0.000000000  3.717366373  0.000000000     0.000000000  0.269007652 -0.000000000
     0.000000000  0.000000000 25.035562452     0.000000000  0.000000000  0.039943181

  length of vectors
    17.803673428  3.717366373 25.035562452     0.056168184  0.269007652  0.039943181


 FORCES acting on ions
    electron-ion (+dipol)            ewald-force                    non-local-force                 convergence-correction
 -----------------------------------------------------------------------------------------------
   -.110E+03 0.129E-04 0.501E+02   0.108E+03 -.388E-04 -.495E+02   0.788E+00 -.232E-16 -.387E+00   0.679E+00 0.252E-04 -.710E-01
   -.110E+03 -.183E-04 -.501E+02   0.108E+03 0.388E-04 0.496E+02   0.786E+00 0.232E-16 0.387E+00   0.672E+00 -.113E-04 0.936E-01
   0.110E+03 0.128E-04 0.501E+02   -.108E+03 -.388E-04 -.496E+02   -.798E+00 -.235E-16 -.392E+00   -.677E+00 0.251E-04 -.713E-01
   0.110E+03 -.183E-04 -.501E+02   -.109E+03 0.388E-04 0.495E+02   -.805E+00 0.235E-16 0.392E+00   -.671E+00 -.114E-04 0.919E-01
   0.809E+02 0.295E-04 0.564E+03   -.815E+02 -.961E-04 -.562E+03   0.286E+00 -.504E-16 -.842E+00   0.364E+00 -.137E-03 -.168E+01
   0.808E+02 -.284E-04 -.565E+03   -.814E+02 0.961E-04 0.562E+03   0.302E+00 0.511E-16 0.853E+00   0.311E+00 -.915E-03 0.168E+01
   -.805E+02 0.294E-04 0.564E+03   0.813E+02 -.961E-04 -.562E+03   -.286E+00 -.517E-16 -.864E+00   -.389E+00 -.137E-03 -.164E+01
   -.805E+02 -.284E-04 -.565E+03   0.812E+02 0.961E-04 0.562E+03   -.294E+00 0.499E-16 0.833E+00   -.347E+00 -.915E-03 0.173E+01
   -.562E+00 -.344E-05 0.478E+02   0.526E+00 -.448E-04 -.488E+02   0.956E-02 -.558E-17 -.931E-01   0.329E-01 -.195E-03 0.112E+01
   -.393E+00 0.201E-04 -.475E+02   0.381E+00 0.448E-04 0.484E+02   0.979E-02 0.379E-17 0.631E-01   0.521E-02 -.929E-03 -.101E+01
   -.105E+03 0.766E-04 0.709E+03   0.107E+03 0.334E-04 -.716E+03   -.144E+01 0.449E-15 0.750E+01   0.707E-01 -.141E-04 -.102E+01
   -.106E+03 0.163E-04 -.710E+03   0.107E+03 -.334E-04 0.716E+03   -.143E+01 -.449E-15 -.750E+01   0.632E-01 0.230E-04 0.104E+01
   0.547E+02 0.738E-06 0.660E+03   -.550E+02 -.899E-05 -.664E+03   0.104E+01 0.304E-15 0.507E+01   -.656E+00 -.182E-05 -.817E+00
   0.546E+02 0.105E-03 -.660E+03   -.549E+02 0.899E-05 0.664E+03   0.104E+01 -.304E-15 -.507E+01   -.668E+00 -.284E-04 0.822E+00
   0.106E+03 0.765E-04 0.709E+03   -.107E+03 0.335E-04 -.716E+03   0.142E+01 0.450E-15 0.750E+01   -.754E-01 -.141E-04 -.102E+01
   0.106E+03 0.163E-04 -.710E+03   -.107E+03 -.334E-04 0.716E+03   0.143E+01 -.449E-15 -.750E+01   -.639E-01 0.231E-04 0.104E+01
   -.548E+02 0.737E-06 0.660E+03   0.551E+02 -.898E-05 -.664E+03   -.103E+01 0.304E-15 0.508E+01   0.661E+00 -.183E-05 -.825E+00
   -.548E+02 0.105E-03 -.660E+03   0.551E+02 0.899E-05 0.664E+03   -.103E+01 -.304E-15 -.508E+01   0.665E+00 -.285E-04 0.823E+00
   -.128E+00 0.165E-04 0.601E+03   0.131E+00 -.293E-04 -.605E+03   -.233E-02 0.268E-15 0.447E+01   -.202E-02 0.221E-04 -.429E+00
   -.175E+00 0.840E-04 -.600E+03   0.170E+00 0.293E-04 0.604E+03   0.138E-02 -.267E-15 -.446E+01   0.485E-02 -.113E-04 0.451E+00
 -----------------------------------------------------------------------------------------------
   0.124E-01 0.506E-03 -.246E+00   -.799E-13 0.631E-13 -.227E-12   -.475E-02 -.275E-17 -.453E-01   -.191E-01 -.323E-02 0.295E+00
 
 
 POSITION                                       TOTAL-FORCE (eV/Angst)
 -----------------------------------------------------------------------------------
     15.51898      0.92934     12.44182         0.054528      0.000000      0.074351
      6.61685      2.78802     12.59408         0.051304     -0.000000     -0.076376
      2.29925      0.92934     12.44144        -0.056820      0.000000      0.072791
     11.20189      2.78802     12.59429        -0.061572     -0.000000     -0.072202
     12.97833      0.92934     11.77745        -0.034326     -0.000000     -0.025730
      4.07598      2.78802     13.25903        -0.035271      0.000000      0.022648
      4.83946      0.92934     11.77709         0.034076     -0.000000     -0.022893
     13.74157      2.78802     13.25919         0.034347      0.000000      0.023288
      8.90704      0.92934     12.37051         0.006937      0.000000      0.081677
      0.00563      2.78802     12.66458         0.003208     -0.000000     -0.081118
     14.31190      2.78802     10.58080        -0.018664      0.000000      0.126376
      5.40956      0.92934     14.45539        -0.016101     -0.000000     -0.126914
     10.69318      0.92934     10.56251         0.095516      0.000000      0.140027
      1.79052      2.78802     14.47337         0.099051     -0.000000     -0.140829
      3.50692      2.78802     10.58040         0.011687      0.000000      0.127282
     12.40877      0.92934     14.45569         0.012293     -0.000000     -0.127299
      7.12347      0.92934     10.56106        -0.090593      0.000000      0.147532
     16.02572      2.78802     14.47455        -0.090210     -0.000000     -0.146451
      0.00715      0.92934     10.89807        -0.000567      0.000000      0.118608
      8.90899      2.78802     14.13663         0.001178     -0.000000     -0.114768
 -----------------------------------------------------------------------------------
    total drift:                               -0.011382     -0.002726      0.003049


--------------------------------------------------------------------------------------------------------



  FREE ENERGIE OF THE ION-ELECTRON SYSTEM (eV)
  ---------------------------------------------------
  free  energy   TOTEN  =      -118.74264612 eV

  energy  without entropy=     -118.74264612  energy(sigma->0) =     -118.74264612
 


--------------------------------------------------------------------------------------------------------


    POTLOK:  cpu time      0.6238: real time      0.6242


--------------------------------------------------------------------------------------------------------


     LOOP+:  cpu time   4078.3887: real time   4083.5498
    4ORBIT:  cpu time      0.0000: real time      0.0000



 total charge

# of ion       s       p       d       tot
------------------------------------------
    1        0.561   0.663   3.291   4.515
    2        0.561   0.663   3.291   4.515
    3        0.561   0.663   3.291   4.515
    4        0.561   0.663   3.291   4.515
    5        0.456   0.540   8.421   9.417
    6        0.456   0.540   8.420   9.416
    7        0.456   0.540   8.421   9.417
    8        0.456   0.540   8.421   9.417
    9        0.411   0.473   8.383   9.267
   10        0.411   0.473   8.383   9.267
   11        1.371   1.955   0.063   3.389
   12        1.371   1.954   0.063   3.388
   13        1.373   1.978   0.062   3.413
   14        1.373   1.978   0.062   3.413
   15        1.371   1.954   0.063   3.389
   16        1.371   1.954   0.063   3.388
   17        1.373   1.978   0.062   3.413
   18        1.373   1.978   0.062   3.413
   19        1.364   1.999   0.058   3.421
   20        1.364   1.999   0.058   3.420
--------------------------------------------------
tot         18.594  25.484  64.229 108.307
 

 total amount of memory used by VASP MPI-rank0   427123. kBytes
=======================================================================

   base      :      30000. kBytes
   nonlr-proj:       5374. kBytes
   fftplans  :      30071. kBytes
   grid      :      16193. kBytes
   one-center:         77. kBytes
   wavefun   :     345408. kBytes
 
  
  
 General timing and accounting informations for this job:
 ========================================================
  
                  Total CPU time used (sec):     4154.514
                            User time (sec):     4152.792
                          System time (sec):        1.723
                         Elapsed time (sec):     4160.973
  
                   Maximum memory used (kb):      674288.
                   Average memory used (kb):          N/A
  
                          Minor page faults:       171933
                          Major page faults:         4026
                 Voluntary context switches:          841
