unknown system                          
           1
    17.803673    0.000000    0.000000
     0.000000    3.717366    0.000000
     0.000000    0.000000   25.035562
   Ta   Ni   Te
     4     6    10
Direct configuration=     1
   0.87167320  0.24999997  0.49696590
   0.37165667  0.74999988  0.50304749
   0.12914495  0.24999997  0.49695077
   0.62918985  0.74999988  0.50305619
   0.72896920  0.24999997  0.47042888
   0.22894062  0.74999988  0.52960778
   0.27182373  0.24999997  0.47041435
   0.77183887  0.74999988  0.52961436
   0.50029225  0.24999997  0.49411734
   0.00031608  0.74999988  0.50586345
   0.80387361  0.74999988  0.42263091
   0.30384533  0.24999997  0.57739411
   0.60061650  0.24999997  0.42190022
   0.10057022  0.74999988  0.57811234
   0.19697738  0.74999988  0.42261492
   0.69697793  0.24999997  0.57740606
   0.40011209  0.24999997  0.42184253
   0.90013574  0.74999988  0.57815966
   0.00040155  0.24999997  0.43530342
   0.50040180  0.74999988  0.56466193
