 running   32 mpi-ranks, on    1 nodes
 distrk:  each k-point on   32 cores,    1 groups
 distr:  one band on    4 cores,    8 groups
 vasp.6.4.2 20Jul23 (build Nov 14 2023 12:59:38) complex                        
  
 POSCAR found type information on POSCAR TaNiTe
 POSCAR found :  3 types and      20 ions
 Reading from existing POTCAR
 scaLAPACK will be used
 Reading from existing POTCAR
 LDA part: xc-table for Pade appr. of Perdew
 POSCAR, INCAR and KPOINTS ok, starting setup
 FFT: planning ... GRIDC
 FFT: planning ... GRID_SOFT
 FFT: planning ... GRID
 WAVECAR not read
 entering main loop
       N       E                     dE             d eps       ncg     rms          rms(c)
DAV:   1     0.920726131526E+03    0.92073E+03   -0.46942E+04  2112   0.122E+03
DAV:   2    -0.978149085831E+00   -0.92170E+03   -0.89096E+03  2808   0.264E+02
DAV:   3    -0.119182324156E+03   -0.11820E+03   -0.11603E+03  2640   0.106E+02
DAV:   4    -0.126393332175E+03   -0.72110E+01   -0.71132E+01  3032   0.257E+01
DAV:   5    -0.126650049547E+03   -0.25672E+00   -0.25555E+00  3264   0.452E+00
DAV:   6    -0.126655826059E+03   -0.57765E-02   -0.57641E-02  3032   0.672E-01
DAV:   7    -0.126656072136E+03   -0.24608E-03   -0.24587E-03  3288   0.129E-01
DAV:   8    -0.126656082361E+03   -0.10225E-04   -0.10220E-04  2424   0.227E-02
DAV:   9    -0.126656083024E+03   -0.66368E-06   -0.66314E-06  1792   0.690E-03
DAV:  10    -0.126656083148E+03   -0.12394E-06   -0.12366E-06  1560   0.385E-03
DAV:  11    -0.126656083208E+03   -0.59270E-07   -0.59046E-07  1432   0.272E-03
DAV:  12    -0.126656083241E+03   -0.33027E-07   -0.32884E-07  1384   0.200E-03    0.385E+01
DAV:  13    -0.123321458651E+03    0.33346E+01   -0.60932E+00  3056   0.238E+01    0.304E+01
DAV:  14    -0.120828784937E+03    0.24927E+01   -0.34777E+00  2776   0.680E+00    0.221E+01
DAV:  15    -0.119822079515E+03    0.10067E+01   -0.14347E+01  2800   0.175E+01    0.622E+00
DAV:  16    -0.119678586199E+03    0.14349E+00   -0.10050E+00  3024   0.604E+00    0.586E+00
DAV:  17    -0.119633945213E+03    0.44641E-01   -0.16076E-01  3336   0.475E+00    0.449E+00
DAV:  18    -0.119544667521E+03    0.89278E-01   -0.13652E-01  2896   0.384E+00    0.294E+00
DAV:  19    -0.119383322682E+03    0.16134E+00   -0.58723E-01  2584   0.361E+00    0.258E+00
DAV:  20    -0.119388909124E+03   -0.55864E-02   -0.81749E-02  2504   0.142E+00    0.159E+00
DAV:  21    -0.119385645468E+03    0.32637E-02   -0.69980E-03  3328   0.579E-01    0.133E+00
DAV:  22    -0.119383212863E+03    0.24326E-02   -0.55794E-03  3416   0.911E-01    0.115E+00
DAV:  23    -0.119381865417E+03    0.13474E-02   -0.76279E-03  3000   0.770E-01    0.859E-01
DAV:  24    -0.119381817421E+03    0.47996E-04   -0.43918E-03  3008   0.464E-01    0.501E-01
DAV:  25    -0.119382011591E+03   -0.19417E-03   -0.15752E-03  3216   0.350E-01    0.393E-01
DAV:  26    -0.119381752335E+03    0.25926E-03   -0.59712E-04  2896   0.183E-01    0.391E-01
DAV:  27    -0.119381574030E+03    0.17831E-03   -0.41392E-04  2728   0.113E-01    0.355E-01
DAV:  28    -0.119381543933E+03    0.30097E-04   -0.11643E-04  2864   0.883E-02    0.257E-01
DAV:  29    -0.119381524152E+03    0.19781E-04   -0.34486E-05  1744   0.394E-02    0.204E-01
DAV:  30    -0.119381505332E+03    0.18820E-04   -0.43184E-05  2216   0.289E-02    0.155E-01
DAV:  31    -0.119381493140E+03    0.12192E-04   -0.11682E-05  1296   0.254E-02    0.128E-01
DAV:  32    -0.119381475236E+03    0.17904E-04   -0.29312E-05  1752   0.260E-02    0.919E-02
DAV:  33    -0.119381470655E+03    0.45807E-05   -0.11155E-05  1272   0.120E-02
   1 F= -.11938147E+03 E0= -.11938147E+03  d E =-.119381E+03
 curvature:   0.00 expect dE= 0.000E+00 dE for cont linesearch  0.000E+00
 trial: gam= 0.00000 g(F)=  0.236E-04 g(S)=  0.234E-04 ort = 0.000E+00 (trialstep = 0.100E+01)
 search vector abs. value=  0.471E-04
 reached required accuracy - stopping structural energy minimisation
