 vasp.6.4.2 20Jul23 (build Nov 14 2023 12:59:38) complex                        
  
 executed on             LinuxIFC date 2024.06.22  09:27:24
 running   32 mpi-ranks, on    1 nodes
 distrk:  each k-point on   32 cores,    1 groups
 distr:  one band on NCORE=   4 cores,    8 groups


--------------------------------------------------------------------------------------------------------


 INCAR:
   ENCUT = 539.064
   ALGO = Normal
   NELM = 200
   NELMIN = 6
   NELMDL = -12
   EDIFF = 1.0E-5
   AMIX = 0.1
   BMIX = 0.0001
   PREC = Accurate
   IVDW = 0
   ISPIN = 1
   ADDGRID = .TRUE.
   LASPH = .TRUE.
   LREAL = Auto
   NSW = 30
   EDIFFG = -0.010
   IBRION = 2
   ISIF = 3
   POTIM = 0.5
   STRESSTYPE = 2
   ISMEAR = 0
   SIGMA = 0.01
   LORBIT = 10
   NEDOS = 6001
   NWRITE = 1
   LWAVE = .FALSE.
   LCHARG = .FALSE.
   NCORE = 4
   LPLANE = .TRUE.

 POTCAR:    PAW_PBE Ta 17Jan2003                  
 POTCAR:    PAW_PBE Ni 02Aug2007                  
 POTCAR:    PAW_PBE Te 08Apr2002                  
 POTCAR:    PAW_PBE Ta 17Jan2003                  
  local pseudopotential read in
  partial core-charges read in
  partial kinetic energy density read in
  atomic valenz-charges read in
  non local Contribution for L=           2  read in
    real space projection operators read in
  non local Contribution for L=           2  read in
    real space projection operators read in
  non local Contribution for L=           0  read in
    real space projection operators read in
  non local Contribution for L=           0  read in
    real space projection operators read in
  non local Contribution for L=           1  read in
    real space projection operators read in
  non local Contribution for L=           1  read in
    real space projection operators read in
    PAW grid and wavefunctions read in
 
   number of l-projection  operators is LMAX  =           6
   number of lm-projection operators is LMMAX =          18
 
 POTCAR:    PAW_PBE Ni 02Aug2007                  
  local pseudopotential read in
  partial core-charges read in
  partial kinetic energy density read in
  atomic valenz-charges read in
  non local Contribution for L=           2  read in
    real space projection operators read in
  non local Contribution for L=           2  read in
    real space projection operators read in
  non local Contribution for L=           0  read in
    real space projection operators read in
  non local Contribution for L=           0  read in
    real space projection operators read in
  non local Contribution for L=           1  read in
    real space projection operators read in
  non local Contribution for L=           1  read in
    real space projection operators read in
    PAW grid and wavefunctions read in
 
   number of l-projection  operators is LMAX  =           6
   number of lm-projection operators is LMMAX =          18
 
 POTCAR:    PAW_PBE Te 08Apr2002                  
  local pseudopotential read in
  partial core-charges read in
  partial kinetic energy density read in
  atomic valenz-charges read in
  non local Contribution for L=           0  read in
    real space projection operators read in
  non local Contribution for L=           0  read in
    real space projection operators read in
  non local Contribution for L=           1  read in
    real space projection operators read in
  non local Contribution for L=           1  read in
    real space projection operators read in
  non local Contribution for L=           2  read in
    real space projection operators read in
    PAW grid and wavefunctions read in
 
   number of l-projection  operators is LMAX  =           5
   number of lm-projection operators is LMMAX =          13
 
 Optimization of the real space projectors (new method)

 maximal supplied QI-value         = 12.85
 optimisation between [QCUT,QGAM] = [ 11.82, 23.77] = [ 39.14,158.26] Ry 
 Optimized for a Real-space Cutoff    1.60 Angstroem

   l    n(q)    QCUT    max X(q) W(low)/X(q) W(high)/X(q)  e(spline) 
   2     10    11.822    62.315    0.58E-04    0.74E-04    0.13E-05
   2     10    11.822    52.185    0.59E-04    0.74E-04    0.13E-05
   0     11    11.822   103.837    0.23E-04    0.11E-04    0.18E-06
   0     11    11.822    59.728    0.18E-04    0.10E-04    0.17E-06
   1     11    11.822    13.958    0.23E-03    0.50E-03    0.16E-05
   1     11    11.822     8.441    0.16E-03    0.35E-03    0.11E-05
 Optimization of the real space projectors (new method)

 maximal supplied QI-value         = 16.25
 optimisation between [QCUT,QGAM] = [ 11.86, 23.73] = [ 39.41,157.65] Ry 
 Optimized for a Real-space Cutoff    1.34 Angstroem

   l    n(q)    QCUT    max X(q) W(low)/X(q) W(high)/X(q)  e(spline) 
   2      9    11.864    60.317    0.17E-03    0.41E-03    0.23E-06
   2      9    11.864    55.921    0.17E-03    0.42E-03    0.23E-06
   0     10    11.864    51.690    0.19E-03    0.16E-04    0.19E-06
   0     10    11.864    30.015    0.17E-03    0.16E-04    0.17E-06
   1      9    11.864    18.849    0.19E-03    0.28E-03    0.13E-06
   1      9    11.864    14.624    0.15E-03    0.23E-03    0.11E-06
 Optimization of the real space projectors (new method)

 maximal supplied QI-value         = 16.25
 optimisation between [QCUT,QGAM] = [ 11.86, 23.73] = [ 39.41,157.65] Ry 
 Optimized for a Real-space Cutoff    1.38 Angstroem

   l    n(q)    QCUT    max X(q) W(low)/X(q) W(high)/X(q)  e(spline) 
   0     10    11.864   224.858    0.33E-04    0.93E-04    0.16E-06
   0     10    11.864   205.313    0.33E-04    0.94E-04    0.16E-06
   1      9    11.864   119.695    0.17E-03    0.15E-03    0.11E-06
   1      9    11.864    84.282    0.17E-03    0.14E-03    0.11E-06
   2      9    11.864     5.599    0.13E-04    0.62E-04    0.67E-07
  PAW_PBE Ta 17Jan2003                  :
 energy of atom  1       EATOM= -130.6506
 kinetic energy error for atom=    0.0008 (will be added to EATOM!!)
  PAW_PBE Ni 02Aug2007                  :
 energy of atom  2       EATOM=-1077.6739
 kinetic energy error for atom=    0.0029 (will be added to EATOM!!)
  PAW_PBE Te 08Apr2002                  :
 energy of atom  3       EATOM= -223.2721
 kinetic energy error for atom=    0.0006 (will be added to EATOM!!)
 
 
 POSCAR: Ta8 Ni12 Te20
  positions in direct lattice
  velocities in cartesian coordinates
 exchange correlation table for  LEXCH =        8
   RHO(1)=    0.500       N(1)  =     2000
   RHO(2)=  100.500       N(2)  =     4000
 


--------------------------------------------------------------------------------------------------------


 ion  position               nearest neighbor table
   1  0.872  0.250  0.497-   5 2.63   8 2.70   8 2.70  19 2.76  18 2.80  18 2.80  11 2.89  11 2.89
                            10 2.96  10 2.96
   2  0.372  0.750  0.503-   6 2.63   7 2.70   7 2.70  20 2.76  17 2.80  17 2.80  12 2.89  12 2.89
                             9 2.96   9 2.96
   3  0.129  0.250  0.497-   7 2.63   6 2.70   6 2.70  19 2.76  14 2.80  14 2.80  15 2.89  15 2.89
                            10 2.96  10 2.96
   4  0.629  0.750  0.503-   8 2.63   5 2.70   5 2.70  20 2.76  13 2.80  13 2.80  16 2.89  16 2.89
                             9 2.96   9 2.96
   5  0.729  0.250  0.470-   8 2.50   8 2.50  11 2.58  11 2.58  13 2.59   1 2.63   4 2.70   4 2.70
                            16 2.74
   6  0.229  0.750  0.530-   7 2.50   7 2.50  12 2.58  12 2.58  14 2.59   2 2.63   3 2.70   3 2.70
                            15 2.74
   7  0.272  0.250  0.470-   6 2.50   6 2.50  15 2.58  15 2.58  17 2.59   3 2.63   2 2.70   2 2.70
                            12 2.74
   8  0.772  0.750  0.530-   5 2.50   5 2.50  16 2.58  16 2.58  18 2.59   4 2.63   1 2.70   1 2.70
                            11 2.74
   9  0.500  0.250  0.494-  17 2.54  13 2.54  20 2.56  20 2.56   2 2.96   2 2.96   4 2.96   4 2.96

  10  0.000  0.750  0.506-  18 2.54  14 2.54  19 2.56  19 2.56   1 2.96   1 2.96   3 2.96   3 2.96

  11  0.804  0.750  0.423-   5 2.58   5 2.58   8 2.74   1 2.89   1 2.89
  12  0.304  0.250  0.577-   6 2.58   6 2.58   7 2.74   2 2.89   2 2.89
  13  0.601  0.250  0.422-   9 2.54   5 2.59   4 2.80   4 2.80  17 3.57
  14  0.101  0.750  0.578-  10 2.54   6 2.59   3 2.80   3 2.80  18 3.57
  15  0.197  0.750  0.423-   7 2.58   7 2.58   6 2.74   3 2.89   3 2.89
  16  0.697  0.250  0.577-   8 2.58   8 2.58   5 2.74   4 2.89   4 2.89
  17  0.400  0.250  0.422-   9 2.54   7 2.59   2 2.80   2 2.80  13 3.57
  18  0.900  0.750  0.578-  10 2.54   8 2.59   1 2.80   1 2.80  14 3.57
  19  0.000  0.250  0.435-  10 2.56  10 2.56   1 2.76   3 2.76
  20  0.500  0.750  0.565-   9 2.56   9 2.56   2 2.76   4 2.76
 
  LATTYP: Found a simple orthorhombic cell.
 ALAT       =     3.7173663731
 B/A-ratio  =     4.7893243875
 C/A-ratio  =     6.7347578740
  
  Lattice vectors:
  
 A1 = (   0.0000000000,  -3.7173663731,   0.0000000000)
 A2 = (  17.8036734280,   0.0000000000,   0.0000000000)
 A3 = (   0.0000000000,   0.0000000000,  25.0355624519)


Analysis of symmetry for initial positions (statically):
=====================================================================
 Subroutine PRICEL returns:
 Original cell was already a primitive cell.
 

 Routine SETGRP: Setting up the symmetry group for a 
 simple orthorhombic supercell.


 Subroutine GETGRP returns: Found  2 space group operations
 (whereof  1 operations were pure point group operations)
 out of a pool of  8 trial point group operations.


The static configuration has the point symmetry C_1 .
 The point group associated with its full space group is C_1h.


Analysis of symmetry for dynamics (positions and initial velocities):
=====================================================================
 Subroutine PRICEL returns:
 Original cell was already a primitive cell.
 

 Routine SETGRP: Setting up the symmetry group for a 
 simple orthorhombic supercell.


 Subroutine GETGRP returns: Found  2 space group operations
 (whereof  1 operations were pure point group operations)
 out of a pool of  8 trial point group operations.


The dynamic configuration has the point symmetry C_1 .
 The point group associated with its full space group is C_1h.


 Subroutine INISYM returns: Found  2 space group operations
 (whereof  1 operations are pure point group operations),
 and found     1 'primitive' translations


----------------------------------------------------------------------------------------

                                     Primitive cell                                     

  volume of cell :    1656.9230

  direct lattice vectors                    reciprocal lattice vectors
    17.803673428  0.000000000  0.000000000     0.056168184  0.000000000  0.000000000
     0.000000000  3.717366373  0.000000000     0.000000000  0.269007652 -0.000000000
     0.000000000  0.000000000 25.035562452     0.000000000  0.000000000  0.039943181

  length of vectors
    17.803673428  3.717366373 25.035562452     0.056168184  0.269007652  0.039943181

  position of ions in fractional coordinates (direct lattice)
     0.871673196  0.249999970  0.496965903
     0.371656673  0.749999881  0.503047488
     0.129144954  0.249999970  0.496950766
     0.629189849  0.749999881  0.503056190
     0.728969198  0.249999970  0.470428878
     0.228940622  0.749999881  0.529607779
     0.271823733  0.249999970  0.470414353
     0.771838868  0.749999881  0.529614355
     0.500292249  0.249999970  0.494117339
     0.000316075  0.749999881  0.505863449
     0.803873609  0.749999881  0.422630908
     0.303845329  0.249999970  0.577394114
     0.600616500  0.249999970  0.421900216
     0.100570225  0.749999881  0.578112336
     0.196977383  0.749999881  0.422614921
     0.696977929  0.249999970  0.577406064
     0.400112091  0.249999970  0.421842527
     0.900135743  0.749999881  0.578159661
     0.000401553  0.249999970  0.435303419
     0.500401798  0.749999881  0.564661933

  ion indices of the primitive-cell ions
   primitive index   ion index
                 1           1
                 2           2
                 3           3
                 4           4
                 5           5
                 6           6
                 7           7
                 8           8
                 9           9
                10          10
                11          11
                12          12
                13          13
                14          14
                15          15
                16          16
                17          17
                18          18
                19          19
                20          20

----------------------------------------------------------------------------------------

 
 
 KPOINTS: Regular 4 x 4 x 4 mesh centered at Gamma

Automatic generation of k-mesh.
 Grid dimensions read from file:
 generate k-points for:    2   11    1

 Generating k-lattice:

  Cartesian coordinates                     Fractional coordinates (reciprocal lattice)
     0.028084092  0.000000000  0.000000000     0.500000000  0.000000000  0.000000000
     0.000000000  0.024455241 -0.000000000     0.000000000  0.090909091  0.000000000
     0.000000000  0.000000000  0.039943181     0.000000000  0.000000000  1.000000000

  Length of vectors
     0.028084092  0.024455241  0.039943181

  Shift w.r.t. Gamma in fractional coordinates (k-lattice)
     0.000000000  0.000000000  0.000000000

 
 Subroutine IBZKPT returns following result:
 ===========================================
 
 Found     12 irreducible k-points:
 
 Following reciprocal coordinates:
            Coordinates               Weight
  0.000000  0.000000  0.000000      1.000000
  0.500000  0.000000  0.000000      1.000000
  0.000000  0.090909 -0.000000      2.000000
  0.500000  0.090909 -0.000000      2.000000
  0.000000  0.181818  0.000000      2.000000
  0.500000  0.181818  0.000000      2.000000
  0.000000  0.272727  0.000000      2.000000
  0.500000  0.272727  0.000000      2.000000
  0.000000  0.363636 -0.000000      2.000000
  0.500000  0.363636 -0.000000      2.000000
  0.000000  0.454545 -0.000000      2.000000
  0.500000  0.454545 -0.000000      2.000000
 
 Following cartesian coordinates:
            Coordinates               Weight
  0.000000  0.000000  0.000000      1.000000
  0.028084  0.000000  0.000000      1.000000
  0.000000  0.024455 -0.000000      2.000000
  0.028084  0.024455 -0.000000      2.000000
  0.000000  0.048910 -0.000000      2.000000
  0.028084  0.048910 -0.000000      2.000000
  0.000000  0.073366 -0.000000      2.000000
  0.028084  0.073366 -0.000000      2.000000
  0.000000  0.097821 -0.000000      2.000000
  0.028084  0.097821 -0.000000      2.000000
  0.000000  0.122276 -0.000000      2.000000
  0.028084  0.122276 -0.000000      2.000000
 


--------------------------------------------------------------------------------------------------------




 Dimension of arrays:
   k-points           NKPTS =     12   k-points in BZ     NKDIM =     12   number of bands    NBANDS=     88
   number of dos      NEDOS =   6001   number of ions     NIONS =     20
   non local maximal  LDIM  =      6   non local SUM 2l+1 LMDIM =     18
   total plane-waves  NPLWV = 752640
   max r-space proj   IRMAX =   7817   max aug-charges    IRDMAX= 247536
   dimension x,y,z NGX =   140 NGY =   28 NGZ =  192
   dimension x,y,z NGXF=   280 NGYF=   56 NGZF=  384
   support grid    NGXF=   560 NGYF=  112 NGZF=  768
   ions per type =               4   6  10
   NGX,Y,Z   is equivalent  to a cutoff of  13.07, 12.52, 12.75 a.u.
   NGXF,Y,Z  is equivalent  to a cutoff of  26.15, 25.04, 25.50 a.u.

 SYSTEM =  unknown system                          
 POSCAR =  Ta8 Ni12 Te20                           

 Startparameter for this run:
   NWRITE =      1    write-flag & timer
   PREC   = accura    normal or accurate (medium, high low for compatibility)
   ISTART =      0    job   : 0-new  1-cont  2-samecut
   ICHARG =      2    charge: 1-file 2-atom 10-const
   ISPIN  =      1    spin polarized calculation?
   LNONCOLLINEAR =      F non collinear calculations
   LSORBIT =      F    spin-orbit coupling
   INIWAV =      1    electr: 0-lowe 1-rand  2-diag
   LASPH  =      T    aspherical Exc in radial PAW
 Electronic Relaxation 1
   ENCUT  =  539.1 eV  39.62 Ry    6.29 a.u.  33.70  7.04 47.40*2*pi/ulx,y,z
   ENINI  =  539.1     initial cutoff
   ENAUG  =  544.6 eV  augmentation charge cutoff
   NELM   =    200;   NELMIN=  6; NELMDL=-12     # of ELM steps 
   EDIFF  = 0.1E-04   stopping-criterion for ELM
   LREAL  =      T    real-space projection
   NLSPLINE    = F    spline interpolate recip. space projectors
   LCOMPAT=      F    compatible to vasp.4.4
   GGA_COMPAT  = T    GGA compatible to vasp.4.4-vasp.4.6
   LMAXPAW     = -100 max onsite density
   LMAXMIX     =    2 max onsite mixed and CHGCAR
   VOSKOWN=      0    Vosko Wilk Nusair interpolation
   ROPT   =   -0.00025  -0.00025  -0.00025
 Ionic relaxation
   EDIFFG = -.1E-01   stopping-criterion for IOM
   NSW    =     30    number of steps for IOM
   NBLOCK =      1;   KBLOCK =     30    inner block; outer block 
   IBRION =      2    ionic relax: 0-MD 1-quasi-New 2-CG
   NFREE  =      1    steps in history (QN), initial steepest desc. (CG)
   ISIF   =      3    stress and relaxation
   IWAVPR =     11    prediction:  0-non 1-charg 2-wave 3-comb
   ISYM   =      2    0-nonsym 1-usesym 2-fastsym
   LCORR  =      T    Harris-Foulkes like correction to forces

   POTIM  = 0.5000    time-step for ionic-motion
   TEIN   =    0.0    initial temperature
   TEBEG  =    0.0;   TEEND  =   0.0 temperature during run
   SMASS  =  -3.00    Nose mass-parameter (am)
   estimated Nose-frequenzy (Omega)   =  0.10E-29 period in steps = 0.13E+47 mass=  -0.724E-26a.u.
   SCALEE = 1.0000    scale energy and forces
   NPACO  =    256;   APACO  = 10.0  distance and # of slots for P.C.
   PSTRESS=    0.0 pullay stress

  Mass of Ions in am
   POMASS = 180.95 58.69127.60
  Ionic Valenz
   ZVAL   =   5.00 10.00  6.00
  Atomic Wigner-Seitz radii
   RWIGS  =  -1.00 -1.00 -1.00
  virtual crystal weights 
   VCA    =   1.00  1.00  1.00
   NELECT =     140.0000    total number of electrons
   NUPDOWN=      -1.0000    fix difference up-down

 DOS related values:
   EMIN   =  10.00;   EMAX   =-10.00  energy-range for DOS
   EFERMI =   0.00;   METHOD = LEGACY      
   ISMEAR =     0;   SIGMA  =   0.01  broadening in eV -4-tet -1-fermi 0-gaus

 Electronic relaxation 2 (details)
   IALGO  =     38    algorithm
   LDIAG  =      T    sub-space diagonalisation (order eigenvalues)
   LSUBROT=      F    optimize rotation matrix (better conditioning)
   TURBO    =      0    0=normal 1=particle mesh
   IRESTART =      0    0=no restart 2=restart with 2 vectors
   NREBOOT  =      0    no. of reboots
   NMIN     =      0    reboot dimension
   EREF     =   0.00    reference energy to select bands
   IMIX   =      4    mixing-type and parameters
     AMIX     =   0.10;   BMIX     =  0.00
     AMIX_MAG =   0.40;   BMIX_MAG =  0.00
     AMIN     =   0.10
     WC   =   100.;   INIMIX=   1;  MIXPRE=   1;  MAXMIX= -45

 Intra band minimization:
   WEIMIN = 0.0010     energy-eigenvalue tresh-hold
   EBREAK =  0.28E-07  absolut break condition
   DEPER  =   0.30     relativ break condition  

   TIME   =   0.40     timestep for ELM

  volume/ion in A,a.u.               =      82.85       559.07
  Fermi-wavevector in a.u.,A,eV,Ry     =   0.718373  1.357528  7.021421  0.516060
  Thomas-Fermi vector in A             =   1.807294
 
 Write flags
   LWAVE        =      F    write WAVECAR
   LDOWNSAMPLE  =      F    k-point downsampling of WAVECAR
   LCHARG       =      F    write CHGCAR
   LVTOT        =      F    write LOCPOT, total local potential
   LVHAR        =      F    write LOCPOT, Hartree potential only
   LELF         =      F    write electronic localiz. function (ELF)
   LORBIT       =     10    0 simple, 1 ext, 2 COOP (PROOUT), +10 PAW based schemes


 Dipole corrections
   LMONO  =      F    monopole corrections only (constant potential shift)
   LDIPOL =      F    correct potential (dipole corrections)
   IDIPOL =      0    1-x, 2-y, 3-z, 4-all directions 
   EPSILON=  1.0000000 bulk dielectric constant

 Exchange correlation treatment:
   GGA     =    --    GGA type
   LEXCH   =     8    internal setting for exchange type
   LIBXC   =     F    Libxc                    
   VOSKOWN =     0    Vosko Wilk Nusair interpolation
   LHFCALC =     F    Hartree Fock is set to
   LHFONE  =     F    Hartree Fock one center treatment
   AEXX    =    0.0000 exact exchange contribution

 Linear response parameters
   LEPSILON=     F    determine dielectric tensor
   LRPA    =     F    only Hartree local field effects (RPA)
   LNABLA  =     F    use nabla operator in PAW spheres
   LVEL    =     F    velocity operator in full k-point grid
   CSHIFT  =0.1000    complex shift for real part using Kramers Kronig
   OMEGAMAX=  -1.0    maximum frequency
   DEG_THRESHOLD= 0.2000000E-02 threshold for treating states as degnerate
   RTIME   =   -0.100 relaxation time in fs
  (WPLASMAI=    0.000 imaginary part of plasma frequency in eV, 0.658/RTIME)
   DFIELD  = 0.0000000 0.0000000 0.0000000 field for delta impulse in time
 
  Optional k-point grid parameters
   LKPOINTS_OPT  =     F    use optional k-point grid
   KPOINTS_OPT_MODE=     1    mode for optional k-point grid
 
 Orbital magnetization related:
   ORBITALMAG=     F  switch on orbital magnetization
   LCHIMAG   =     F  perturbation theory with respect to B field
   DQ        =  0.001000  dq finite difference perturbation B field
   LLRAUG    =     F  two centre corrections for induced B field
   LBONE     =     F  B-component reconstruction in AE one-centre
   LVGVCALC  =     T  calculate vGv susceptibility
   LVGVAPPL  =     F  apply vGv susceptibility instead of pGv for G=0

 Random number generation:
   RANDOM_GENERATOR = DEFAULT
   PCG_SEED         = not used


--------------------------------------------------------------------------------------------------------


 conjugate gradient relaxation of ions
 charge density and potential will be updated during run
 non-spin polarized calculation
 Variant of blocked Davidson
 Davidson routine will perform the subspace rotation
 perform sub-space diagonalisation
    after iterative eigenvector-optimisation
 modified Broyden-mixing scheme, WC =      100.0
 initial mixing is a Kerker type mixing with AMIX =  0.1000 and BMIX =      0.0001
 Hartree-type preconditioning will be used
 using additional bands           18
 real space projection scheme for non local part
 use partial core corrections
 calculate Harris-corrections to forces 
   (improved forces if not selfconsistent)
 use gradient corrections 
 use of overlap-Matrix (Vanderbilt PP)
 Gauss-broadening in eV      SIGMA  =   0.01


--------------------------------------------------------------------------------------------------------


  energy-cutoff  :      539.06
  volume of cell :     1656.92
      direct lattice vectors                 reciprocal lattice vectors
    17.803673428  0.000000000  0.000000000     0.056168184  0.000000000  0.000000000
     0.000000000  3.717366373  0.000000000     0.000000000  0.269007652 -0.000000000
     0.000000000  0.000000000 25.035562452     0.000000000  0.000000000  0.039943181

  length of vectors
    17.803673428  3.717366373 25.035562452     0.056168184  0.269007652  0.039943181


 
 k-points in units of 2pi/SCALE and weight: Regular 4 x 4 x 4 mesh centered at Gamma
   0.00000000  0.00000000  0.00000000       0.045
   0.02808409  0.00000000  0.00000000       0.045
   0.00000000  0.02445524 -0.00000000       0.091
   0.02808409  0.02445524 -0.00000000       0.091
   0.00000000  0.04891048 -0.00000000       0.091
   0.02808409  0.04891048 -0.00000000       0.091
   0.00000000  0.07336572 -0.00000000       0.091
   0.02808409  0.07336572 -0.00000000       0.091
   0.00000000  0.09782096 -0.00000000       0.091
   0.02808409  0.09782096 -0.00000000       0.091
   0.00000000  0.12227621 -0.00000000       0.091
   0.02808409  0.12227621 -0.00000000       0.091
 
 k-points in reciprocal lattice and weights: Regular 4 x 4 x 4 mesh centered at Gamma
   0.00000000  0.00000000  0.00000000       0.045
   0.50000000  0.00000000  0.00000000       0.045
   0.00000000  0.09090909 -0.00000000       0.091
   0.50000000  0.09090909 -0.00000000       0.091
   0.00000000  0.18181818  0.00000000       0.091
   0.50000000  0.18181818  0.00000000       0.091
   0.00000000  0.27272727  0.00000000       0.091
   0.50000000  0.27272727  0.00000000       0.091
   0.00000000  0.36363636 -0.00000000       0.091
   0.50000000  0.36363636 -0.00000000       0.091
   0.00000000  0.45454545 -0.00000000       0.091
   0.50000000  0.45454545 -0.00000000       0.091
 
 position of ions in fractional coordinates (direct lattice) 
   0.87167320  0.24999997  0.49696590
   0.37165667  0.74999988  0.50304749
   0.12914495  0.24999997  0.49695077
   0.62918985  0.74999988  0.50305619
   0.72896920  0.24999997  0.47042888
   0.22894062  0.74999988  0.52960778
   0.27182373  0.24999997  0.47041435
   0.77183887  0.74999988  0.52961436
   0.50029225  0.24999997  0.49411734
   0.00031608  0.74999988  0.50586345
   0.80387361  0.74999988  0.42263091
   0.30384533  0.24999997  0.57739411
   0.60061650  0.24999997  0.42190022
   0.10057022  0.74999988  0.57811234
   0.19697738  0.74999988  0.42261492
   0.69697793  0.24999997  0.57740606
   0.40011209  0.24999997  0.42184253
   0.90013574  0.74999988  0.57815966
   0.00040155  0.24999997  0.43530342
   0.50040180  0.74999988  0.56466193
 
 position of ions in cartesian coordinates  (Angst):
  15.51898491  0.92934148 12.44182090
   6.61685404  2.78802434 12.59407680
   2.29925459  0.92934148 12.44144193
  11.20189060  2.78802434 12.59429466
  12.97832955  0.92934148 11.77745156
   4.07598407  2.78802434 13.25902862
   4.83946098  0.92934148 11.77708792
  13.74156715  2.78802434 13.25919327
   8.90703983  0.92934148 12.37050549
   0.00562730  2.78802434 12.66457597
  14.31190320  2.78802434 10.58080250
   5.40956301  0.92934148 14.45538639
  10.69318002  0.92934148 10.56250921
   1.79051943  2.78802434 14.47336749
   3.50692100  2.78802434 10.58040226
  12.40876744  0.92934148 14.45568557
   7.12346501  0.92934148 10.56106494
  16.02572282  2.78802434 14.47455230
   0.00714912  0.92934148 10.89806592
   8.90899020  2.78802434 14.13662908
 


--------------------------------------------------------------------------------------------------------


 k-point   1 :   0.0000 0.0000 0.0000  plane waves:   46867
 k-point   2 :   0.5000 0.0000 0.0000  plane waves:   46872
 k-point   3 :   0.0000 0.0909-0.0000  plane waves:   47010
 k-point   4 :   0.5000 0.0909-0.0000  plane waves:   46936
 k-point   5 :   0.0000 0.1818 0.0000  plane waves:   47080
 k-point   6 :   0.5000 0.1818 0.0000  plane waves:   47092
 k-point   7 :   0.0000 0.2727 0.0000  plane waves:   47118
 k-point   8 :   0.5000 0.2727 0.0000  plane waves:   47142
 k-point   9 :   0.0000 0.3636-0.0000  plane waves:   47186
 k-point  10 :   0.5000 0.3636-0.0000  plane waves:   47244
 k-point  11 :   0.0000 0.4545-0.0000  plane waves:   47224
 k-point  12 :   0.5000 0.4545-0.0000  plane waves:   47200

 maximum and minimum number of plane-waves per node :     11832    11623

 maximum number of plane-waves:     47244
 maximum index in each direction: 
   IXMAX=   33   IYMAX=    7   IZMAX=   47
   IXMIN=  -34   IYMIN=   -7   IZMIN=  -47


 real space projection operators:
  total allocation   :      12894.12 KBytes
  max/ min on nodes  :       3231.69       3215.84


 parallel 3D FFT for wavefunctions:
    minimum data exchange during FFTs selected (reduces bandwidth)
 parallel 3D FFT for charge:
    minimum data exchange during FFTs selected (reduces bandwidth)


 total amount of memory used by VASP MPI-rank0   115344. kBytes
=======================================================================

   base      :      30000. kBytes
   nonlr-proj:       6626. kBytes
   fftplans  :      33507. kBytes
   grid      :      19976. kBytes
   one-center:         77. kBytes
   wavefun   :      25158. kBytes
 
     INWAV:  cpu time      0.0000: real time      0.0000
 Broyden mixing: mesh for mixing (old mesh)
   NGX = 67   NGY = 15   NGZ = 95
  (NGX  =280   NGY  = 56   NGZ  =384)
  gives a total of  95475 points

 initial charge density was supplied:
 charge density of overlapping atoms calculated
 number of electron     140.0000000 magnetization 
 keeping initial charge density in first step


--------------------------------------------------------------------------------------------------------


 Maximum index for non-local projection operator         1910
 Maximum index for augmentation-charges         8585 (set IRDMAX)


--------------------------------------------------------------------------------------------------------


 First call to EWALD:  gamma=   0.150
 Maximum number of real-space cells 2x 8x 2
 Maximum number of reciprocal cells 4x 1x 5

    FEWALD:  cpu time      0.0024: real time      0.0024


--------------------------------------- Ionic step        1  -------------------------------------------




--------------------------------------- Iteration      1(   1)  ---------------------------------------


    POTLOK:  cpu time      0.4024: real time      0.5132
    SETDIJ:  cpu time      0.7904: real time      0.7911
     EDDAV:  cpu time     38.7654: real time     38.8078
       DOS:  cpu time      0.0036: real time      0.0036
    --------------------------------------------
      LOOP:  cpu time     39.9619: real time     40.1157

 eigenvalue-minimisations  :  2112
 total energy-change (2. order) : 0.9207261E+03  (-0.4694211E+04)
 number of electron     140.0000000 magnetization 
 augmentation part      140.0000000 magnetization 

 Free energy of the ion-electron system (eV)
  ---------------------------------------------------
  alpha Z        PSCENC =        66.99798409
  Ewald energy   TEWEN  =     29846.57578200
  -Hartree energ DENC   =    -38369.52283748
  -exchange      EXHF   =         0.00000000
  -V(xc)+E(xc)   XCENC  =      -356.72305957
  PAW double counting   =      8612.20315120    -8331.30786060
  entropy T*S    EENTRO =        -0.00073415
  eigenvalues    EBANDS =       231.16346107
  atomic energy  EATOM  =      9221.34024497
  Solvation  Ediel_sol  =         0.00000000
  ---------------------------------------------------
  free energy    TOTEN  =       920.72613153 eV

  energy without entropy =      920.72686568  energy(sigma->0) =      920.72649860


--------------------------------------------------------------------------------------------------------




--------------------------------------- Iteration      1(   2)  ---------------------------------------


     EDDAV:  cpu time     48.2497: real time     48.3075
       DOS:  cpu time      0.0033: real time      0.0033
    --------------------------------------------
      LOOP:  cpu time     48.2531: real time     48.3108

 eigenvalue-minimisations  :  2808
 total energy-change (2. order) :-0.9217043E+03  (-0.8909589E+03)
 number of electron     140.0000000 magnetization 
 augmentation part      140.0000000 magnetization 

 Free energy of the ion-electron system (eV)
  ---------------------------------------------------
  alpha Z        PSCENC =        66.99798409
  Ewald energy   TEWEN  =     29846.57578200
  -Hartree energ DENC   =    -38369.52283748
  -exchange      EXHF   =         0.00000000
  -V(xc)+E(xc)   XCENC  =      -356.72305957
  PAW double counting   =      8612.20315120    -8331.30786060
  entropy T*S    EENTRO =        -0.00000000
  eigenvalues    EBANDS =      -690.54155369
  atomic energy  EATOM  =      9221.34024497
  Solvation  Ediel_sol  =         0.00000000
  ---------------------------------------------------
  free energy    TOTEN  =        -0.97814909 eV

  energy without entropy =       -0.97814909  energy(sigma->0) =       -0.97814909


--------------------------------------------------------------------------------------------------------




--------------------------------------- Iteration      1(   3)  ---------------------------------------


     EDDAV:  cpu time     45.9663: real time     46.0168
       DOS:  cpu time      0.0046: real time      0.0046
    --------------------------------------------
      LOOP:  cpu time     45.9709: real time     46.0214

 eigenvalue-minimisations  :  2640
 total energy-change (2. order) :-0.1182042E+03  (-0.1160332E+03)
 number of electron     140.0000000 magnetization 
 augmentation part      140.0000000 magnetization 

 Free energy of the ion-electron system (eV)
  ---------------------------------------------------
  alpha Z        PSCENC =        66.99798409
  Ewald energy   TEWEN  =     29846.57578200
  -Hartree energ DENC   =    -38369.52283748
  -exchange      EXHF   =         0.00000000
  -V(xc)+E(xc)   XCENC  =      -356.72305957
  PAW double counting   =      8612.20315120    -8331.30786060
  entropy T*S    EENTRO =        -0.00000000
  eigenvalues    EBANDS =      -808.74572876
  atomic energy  EATOM  =      9221.34024497
  Solvation  Ediel_sol  =         0.00000000
  ---------------------------------------------------
  free energy    TOTEN  =      -119.18232416 eV

  energy without entropy =     -119.18232416  energy(sigma->0) =     -119.18232416


--------------------------------------------------------------------------------------------------------




--------------------------------------- Iteration      1(   4)  ---------------------------------------


     EDDAV:  cpu time     51.3264: real time     51.3827
       DOS:  cpu time      0.0037: real time      0.0037
    --------------------------------------------
      LOOP:  cpu time     51.3301: real time     51.3864

 eigenvalue-minimisations  :  3032
 total energy-change (2. order) :-0.7211008E+01  (-0.7113213E+01)
 number of electron     140.0000000 magnetization 
 augmentation part      140.0000000 magnetization 

 Free energy of the ion-electron system (eV)
  ---------------------------------------------------
  alpha Z        PSCENC =        66.99798409
  Ewald energy   TEWEN  =     29846.57578200
  -Hartree energ DENC   =    -38369.52283748
  -exchange      EXHF   =         0.00000000
  -V(xc)+E(xc)   XCENC  =      -356.72305957
  PAW double counting   =      8612.20315120    -8331.30786060
  entropy T*S    EENTRO =        -0.00000000
  eigenvalues    EBANDS =      -815.95673678
  atomic energy  EATOM  =      9221.34024497
  Solvation  Ediel_sol  =         0.00000000
  ---------------------------------------------------
  free energy    TOTEN  =      -126.39333217 eV

  energy without entropy =     -126.39333217  energy(sigma->0) =     -126.39333217


--------------------------------------------------------------------------------------------------------




--------------------------------------- Iteration      1(   5)  ---------------------------------------


     EDDAV:  cpu time     54.4881: real time     54.5477
       DOS:  cpu time      0.0031: real time      0.0031
    --------------------------------------------
      LOOP:  cpu time     54.4912: real time     54.5507

 eigenvalue-minimisations  :  3264
 total energy-change (2. order) :-0.2567174E+00  (-0.2555460E+00)
 number of electron     140.0000000 magnetization 
 augmentation part      140.0000000 magnetization 

 Free energy of the ion-electron system (eV)
  ---------------------------------------------------
  alpha Z        PSCENC =        66.99798409
  Ewald energy   TEWEN  =     29846.57578200
  -Hartree energ DENC   =    -38369.52283748
  -exchange      EXHF   =         0.00000000
  -V(xc)+E(xc)   XCENC  =      -356.72305957
  PAW double counting   =      8612.20315120    -8331.30786060
  entropy T*S    EENTRO =        -0.00000000
  eigenvalues    EBANDS =      -816.21345416
  atomic energy  EATOM  =      9221.34024497
  Solvation  Ediel_sol  =         0.00000000
  ---------------------------------------------------
  free energy    TOTEN  =      -126.65004955 eV

  energy without entropy =     -126.65004955  energy(sigma->0) =     -126.65004955


--------------------------------------------------------------------------------------------------------




--------------------------------------- Iteration      1(   6)  ---------------------------------------


     EDDAV:  cpu time     51.3106: real time     51.3669
       DOS:  cpu time      0.0044: real time      0.0044
    --------------------------------------------
      LOOP:  cpu time     51.3150: real time     51.3713

 eigenvalue-minimisations  :  3032
 total energy-change (2. order) :-0.5776512E-02  (-0.5764072E-02)
 number of electron     140.0000000 magnetization 
 augmentation part      140.0000000 magnetization 

 Free energy of the ion-electron system (eV)
  ---------------------------------------------------
  alpha Z        PSCENC =        66.99798409
  Ewald energy   TEWEN  =     29846.57578200
  -Hartree energ DENC   =    -38369.52283748
  -exchange      EXHF   =         0.00000000
  -V(xc)+E(xc)   XCENC  =      -356.72305957
  PAW double counting   =      8612.20315120    -8331.30786060
  entropy T*S    EENTRO =        -0.00000000
  eigenvalues    EBANDS =      -816.21923067
  atomic energy  EATOM  =      9221.34024497
  Solvation  Ediel_sol  =         0.00000000
  ---------------------------------------------------
  free energy    TOTEN  =      -126.65582606 eV

  energy without entropy =     -126.65582606  energy(sigma->0) =     -126.65582606


--------------------------------------------------------------------------------------------------------




--------------------------------------- Iteration      1(   7)  ---------------------------------------


     EDDAV:  cpu time     54.8224: real time     54.8820
       DOS:  cpu time      0.0050: real time      0.0050
    --------------------------------------------
      LOOP:  cpu time     54.8273: real time     54.8870

 eigenvalue-minimisations  :  3288
 total energy-change (2. order) :-0.2460766E-03  (-0.2458714E-03)
 number of electron     140.0000000 magnetization 
 augmentation part      140.0000000 magnetization 

 Free energy of the ion-electron system (eV)
  ---------------------------------------------------
  alpha Z        PSCENC =        66.99798409
  Ewald energy   TEWEN  =     29846.57578200
  -Hartree energ DENC   =    -38369.52283748
  -exchange      EXHF   =         0.00000000
  -V(xc)+E(xc)   XCENC  =      -356.72305957
  PAW double counting   =      8612.20315120    -8331.30786060
  entropy T*S    EENTRO =        -0.00000000
  eigenvalues    EBANDS =      -816.21947674
  atomic energy  EATOM  =      9221.34024497
  Solvation  Ediel_sol  =         0.00000000
  ---------------------------------------------------
  free energy    TOTEN  =      -126.65607214 eV

  energy without entropy =     -126.65607214  energy(sigma->0) =     -126.65607214


--------------------------------------------------------------------------------------------------------




--------------------------------------- Iteration      1(   8)  ---------------------------------------


     EDDAV:  cpu time     43.0261: real time     43.0728
       DOS:  cpu time      0.0048: real time      0.0048
    --------------------------------------------
      LOOP:  cpu time     43.0309: real time     43.0776

 eigenvalue-minimisations  :  2424
 total energy-change (2. order) :-0.1022463E-04  (-0.1021950E-04)
 number of electron     140.0000000 magnetization 
 augmentation part      140.0000000 magnetization 

 Free energy of the ion-electron system (eV)
  ---------------------------------------------------
  alpha Z        PSCENC =        66.99798409
  Ewald energy   TEWEN  =     29846.57578200
  -Hartree energ DENC   =    -38369.52283748
  -exchange      EXHF   =         0.00000000
  -V(xc)+E(xc)   XCENC  =      -356.72305957
  PAW double counting   =      8612.20315120    -8331.30786060
  entropy T*S    EENTRO =        -0.00000000
  eigenvalues    EBANDS =      -816.21948697
  atomic energy  EATOM  =      9221.34024497
  Solvation  Ediel_sol  =         0.00000000
  ---------------------------------------------------
  free energy    TOTEN  =      -126.65608236 eV

  energy without entropy =     -126.65608236  energy(sigma->0) =     -126.65608236


--------------------------------------------------------------------------------------------------------




--------------------------------------- Iteration      1(   9)  ---------------------------------------


     EDDAV:  cpu time     34.4110: real time     34.4500
       DOS:  cpu time      0.0036: real time      0.0036
    --------------------------------------------
      LOOP:  cpu time     34.4147: real time     34.4536

 eigenvalue-minimisations  :  1792
 total energy-change (2. order) :-0.6636783E-06  (-0.6631380E-06)
 number of electron     140.0000000 magnetization 
 augmentation part      140.0000000 magnetization 

 Free energy of the ion-electron system (eV)
  ---------------------------------------------------
  alpha Z        PSCENC =        66.99798409
  Ewald energy   TEWEN  =     29846.57578200
  -Hartree energ DENC   =    -38369.52283748
  -exchange      EXHF   =         0.00000000
  -V(xc)+E(xc)   XCENC  =      -356.72305957
  PAW double counting   =      8612.20315120    -8331.30786060
  entropy T*S    EENTRO =        -0.00000000
  eigenvalues    EBANDS =      -816.21948763
  atomic energy  EATOM  =      9221.34024497
  Solvation  Ediel_sol  =         0.00000000
  ---------------------------------------------------
  free energy    TOTEN  =      -126.65608302 eV

  energy without entropy =     -126.65608302  energy(sigma->0) =     -126.65608302


--------------------------------------------------------------------------------------------------------




--------------------------------------- Iteration      1(  10)  ---------------------------------------


     EDDAV:  cpu time     31.2352: real time     31.2697
       DOS:  cpu time      0.0036: real time      0.0035
    --------------------------------------------
      LOOP:  cpu time     31.2388: real time     31.2732

 eigenvalue-minimisations  :  1560
 total energy-change (2. order) :-0.1239368E-06  (-0.1236591E-06)
 number of electron     140.0000000 magnetization 
 augmentation part      140.0000000 magnetization 

 Free energy of the ion-electron system (eV)
  ---------------------------------------------------
  alpha Z        PSCENC =        66.99798409
  Ewald energy   TEWEN  =     29846.57578200
  -Hartree energ DENC   =    -38369.52283748
  -exchange      EXHF   =         0.00000000
  -V(xc)+E(xc)   XCENC  =      -356.72305957
  PAW double counting   =      8612.20315120    -8331.30786060
  entropy T*S    EENTRO =        -0.00000000
  eigenvalues    EBANDS =      -816.21948776
  atomic energy  EATOM  =      9221.34024497
  Solvation  Ediel_sol  =         0.00000000
  ---------------------------------------------------
  free energy    TOTEN  =      -126.65608315 eV

  energy without entropy =     -126.65608315  energy(sigma->0) =     -126.65608315


--------------------------------------------------------------------------------------------------------




--------------------------------------- Iteration      1(  11)  ---------------------------------------


     EDDAV:  cpu time     29.4939: real time     29.5270
       DOS:  cpu time      0.0036: real time      0.0036
    --------------------------------------------
      LOOP:  cpu time     29.4974: real time     29.5306

 eigenvalue-minimisations  :  1432
 total energy-change (2. order) :-0.5926995E-07  (-0.5904631E-07)
 number of electron     140.0000000 magnetization 
 augmentation part      140.0000000 magnetization 

 Free energy of the ion-electron system (eV)
  ---------------------------------------------------
  alpha Z        PSCENC =        66.99798409
  Ewald energy   TEWEN  =     29846.57578200
  -Hartree energ DENC   =    -38369.52283748
  -exchange      EXHF   =         0.00000000
  -V(xc)+E(xc)   XCENC  =      -356.72305957
  PAW double counting   =      8612.20315120    -8331.30786060
  entropy T*S    EENTRO =        -0.00000000
  eigenvalues    EBANDS =      -816.21948782
  atomic energy  EATOM  =      9221.34024497
  Solvation  Ediel_sol  =         0.00000000
  ---------------------------------------------------
  free energy    TOTEN  =      -126.65608321 eV

  energy without entropy =     -126.65608321  energy(sigma->0) =     -126.65608321


--------------------------------------------------------------------------------------------------------




--------------------------------------- Iteration      1(  12)  ---------------------------------------


     EDDAV:  cpu time     28.8367: real time     28.8678
       DOS:  cpu time      0.0044: real time      0.0044
    CHARGE:  cpu time      3.8213: real time      3.8256
    MIXING:  cpu time      0.0909: real time      0.0909
    --------------------------------------------
      LOOP:  cpu time     32.7533: real time     32.8112

 eigenvalue-minimisations  :  1384
 total energy-change (2. order) :-0.3302739E-07  (-0.3288434E-07)
 number of electron     140.0000001 magnetization 
 augmentation part       23.8730182 magnetization 

 Broyden mixing:
  rms(total) = 0.38456E+01    rms(broyden)= 0.38456E+01
  rms(prec ) = 0.38960E+01
  weight for this iteration     100.00

 Free energy of the ion-electron system (eV)
  ---------------------------------------------------
  alpha Z        PSCENC =        66.99798409
  Ewald energy   TEWEN  =     29846.57578200
  -Hartree energ DENC   =    -38369.52283748
  -exchange      EXHF   =         0.00000000
  -V(xc)+E(xc)   XCENC  =      -356.72305957
  PAW double counting   =      8612.20315120    -8331.30786060
  entropy T*S    EENTRO =        -0.00000000
  eigenvalues    EBANDS =      -816.21948785
  atomic energy  EATOM  =      9221.34024497
  Solvation  Ediel_sol  =         0.00000000
  ---------------------------------------------------
  free energy    TOTEN  =      -126.65608324 eV

  energy without entropy =     -126.65608324  energy(sigma->0) =     -126.65608324


--------------------------------------------------------------------------------------------------------




--------------------------------------- Iteration      1(  13)  ---------------------------------------


    POTLOK:  cpu time      0.4119: real time      0.4348
    SETDIJ:  cpu time      0.7906: real time      0.7912
     EDDAV:  cpu time     51.6692: real time     51.7268
       DOS:  cpu time      0.0033: real time      0.0033
    CHARGE:  cpu time      3.8004: real time      3.8037
    MIXING:  cpu time      0.0921: real time      0.0922
    --------------------------------------------
      LOOP:  cpu time     56.7674: real time     56.8296

 eigenvalue-minimisations  :  3056
 total energy-change (2. order) : 0.3334625E+01  (-0.6093153E+00)
 number of electron     140.0000001 magnetization 
 augmentation part       26.4450877 magnetization 

 Broyden mixing:
  rms(total) = 0.30390E+01    rms(broyden)= 0.30390E+01
  rms(prec ) = 0.30672E+01
  weight for this iteration     100.00

 eigenvalues of (default mixing * dielectric matrix)
  average eigenvalue GAMMA=   2.0318
  2.0318

 Free energy of the ion-electron system (eV)
  ---------------------------------------------------
  alpha Z        PSCENC =        66.99798409
  Ewald energy   TEWEN  =     29846.57578200
  -Hartree energ DENC   =    -38346.97030793
  -exchange      EXHF   =         0.00000000
  -V(xc)+E(xc)   XCENC  =      -357.84496887
  PAW double counting   =      9032.94738693    -8746.08303068
  entropy T*S    EENTRO =        -0.00000000
  eigenvalues    EBANDS =      -840.28454914
  atomic energy  EATOM  =      9221.34024497
  Solvation  Ediel_sol  =         0.00000000
  ---------------------------------------------------
  free energy    TOTEN  =      -123.32145865 eV

  energy without entropy =     -123.32145865  energy(sigma->0) =     -123.32145865


--------------------------------------------------------------------------------------------------------




--------------------------------------- Iteration      1(  14)  ---------------------------------------


    POTLOK:  cpu time      0.4111: real time      0.4116
    SETDIJ:  cpu time      0.7883: real time      0.7889
     EDDAV:  cpu time     47.7965: real time     47.8500
       DOS:  cpu time      0.0041: real time      0.0041
    CHARGE:  cpu time      3.8528: real time      3.8579
    MIXING:  cpu time      0.1008: real time      0.1009
    --------------------------------------------
      LOOP:  cpu time     52.9536: real time     53.0134

 eigenvalue-minimisations  :  2776
 total energy-change (2. order) : 0.2492674E+01  (-0.3477741E+00)
 number of electron     140.0000001 magnetization 
 augmentation part       26.1637798 magnetization 

 Broyden mixing:
  rms(total) = 0.22084E+01    rms(broyden)= 0.22084E+01
  rms(prec ) = 0.22259E+01
  weight for this iteration     100.00

 eigenvalues of (default mixing * dielectric matrix)
  average eigenvalue GAMMA=   3.2802
  0.8132  5.7473

 Free energy of the ion-electron system (eV)
  ---------------------------------------------------
  alpha Z        PSCENC =        66.99798409
  Ewald energy   TEWEN  =     29846.57578200
  -Hartree energ DENC   =    -38406.78531235
  -exchange      EXHF   =         0.00000000
  -V(xc)+E(xc)   XCENC  =      -357.17798713
  PAW double counting   =      9869.16066408    -9584.42973086
  entropy T*S    EENTRO =        -0.00000000
  eigenvalues    EBANDS =      -776.51042974
  atomic energy  EATOM  =      9221.34024497
  Solvation  Ediel_sol  =         0.00000000
  ---------------------------------------------------
  free energy    TOTEN  =      -120.82878494 eV

  energy without entropy =     -120.82878494  energy(sigma->0) =     -120.82878494


--------------------------------------------------------------------------------------------------------




--------------------------------------- Iteration      1(  15)  ---------------------------------------


    POTLOK:  cpu time      0.4102: real time      0.4106
    SETDIJ:  cpu time      0.7853: real time      0.7859
     EDDAV:  cpu time     48.1733: real time     48.2257
       DOS:  cpu time      0.0035: real time      0.0035
    CHARGE:  cpu time      3.8291: real time      3.8337
    MIXING:  cpu time      0.0899: real time      0.0900
    --------------------------------------------
      LOOP:  cpu time     53.2913: real time     53.3494

 eigenvalue-minimisations  :  2800
 total energy-change (2. order) : 0.1006705E+01  (-0.1434740E+01)
 number of electron     140.0000001 magnetization 
 augmentation part       27.5388392 magnetization 

 Broyden mixing:
  rms(total) = 0.62202E+00    rms(broyden)= 0.62202E+00
  rms(prec ) = 0.63954E+00
  weight for this iteration     100.00

 eigenvalues of (default mixing * dielectric matrix)
  average eigenvalue GAMMA=   2.8336
  6.2398  1.4302  0.8308

 Free energy of the ion-electron system (eV)
  ---------------------------------------------------
  alpha Z        PSCENC =        66.99798409
  Ewald energy   TEWEN  =     29846.57578200
  -Hartree energ DENC   =    -38480.29790516
  -exchange      EXHF   =         0.00000000
  -V(xc)+E(xc)   XCENC  =      -356.64213692
  PAW double counting   =     11923.14286733   -11638.58423955
  entropy T*S    EENTRO =        -0.00071775
  eigenvalues    EBANDS =      -702.35395853
  atomic energy  EATOM  =      9221.34024497
  Solvation  Ediel_sol  =         0.00000000
  ---------------------------------------------------
  free energy    TOTEN  =      -119.82207951 eV

  energy without entropy =     -119.82136176  energy(sigma->0) =     -119.82172064


--------------------------------------------------------------------------------------------------------




--------------------------------------- Iteration      1(  16)  ---------------------------------------


    POTLOK:  cpu time      0.4101: real time      0.4107
    SETDIJ:  cpu time      0.7944: real time      0.7950
     EDDAV:  cpu time     51.2122: real time     51.2684
       DOS:  cpu time      0.0039: real time      0.0039
    CHARGE:  cpu time      3.9198: real time      3.9233
    MIXING:  cpu time      0.0900: real time      0.0900
    --------------------------------------------
      LOOP:  cpu time     56.4304: real time     56.4913

 eigenvalue-minimisations  :  3024
 total energy-change (2. order) : 0.1434933E+00  (-0.1004963E+00)
 number of electron     140.0000001 magnetization 
 augmentation part       27.7695661 magnetization 

 Broyden mixing:
  rms(total) = 0.58604E+00    rms(broyden)= 0.58604E+00
  rms(prec ) = 0.59690E+00
  weight for this iteration     100.00

 eigenvalues of (default mixing * dielectric matrix)
  average eigenvalue GAMMA=   2.5428
  7.0017  1.7500  0.7098  0.7098

 Free energy of the ion-electron system (eV)
  ---------------------------------------------------
  alpha Z        PSCENC =        66.99798409
  Ewald energy   TEWEN  =     29846.57578200
  -Hartree energ DENC   =    -38474.38644922
  -exchange      EXHF   =         0.00000000
  -V(xc)+E(xc)   XCENC  =      -356.64397828
  PAW double counting   =     12305.09207899   -12023.04329880
  entropy T*S    EENTRO =        -0.00000002
  eigenvalues    EBANDS =      -705.61094992
  atomic energy  EATOM  =      9221.34024497
  Solvation  Ediel_sol  =         0.00000000
  ---------------------------------------------------
  free energy    TOTEN  =      -119.67858620 eV

  energy without entropy =     -119.67858618  energy(sigma->0) =     -119.67858619


--------------------------------------------------------------------------------------------------------




--------------------------------------- Iteration      1(  17)  ---------------------------------------


    POTLOK:  cpu time      0.4113: real time      0.4117
    SETDIJ:  cpu time      0.7914: real time      0.7920
     EDDAV:  cpu time     55.5221: real time     55.6615
       DOS:  cpu time      0.0033: real time      0.0033
    CHARGE:  cpu time      3.8488: real time      3.8529
    MIXING:  cpu time      0.0913: real time      0.0913
    --------------------------------------------
      LOOP:  cpu time     60.6682: real time     60.8128

 eigenvalue-minimisations  :  3336
 total energy-change (2. order) : 0.4464099E-01  (-0.1607594E-01)
 number of electron     140.0000001 magnetization 
 augmentation part       27.7136597 magnetization 

 Broyden mixing:
  rms(total) = 0.44943E+00    rms(broyden)= 0.44943E+00
  rms(prec ) = 0.45874E+00
  weight for this iteration     100.00

 eigenvalues of (default mixing * dielectric matrix)
  average eigenvalue GAMMA=   2.5457
  8.0748  2.2417  0.8687  0.8687  0.6747

 Free energy of the ion-electron system (eV)
  ---------------------------------------------------
  alpha Z        PSCENC =        66.99798409
  Ewald energy   TEWEN  =     29846.57578200
  -Hartree energ DENC   =    -38477.08605228
  -exchange      EXHF   =         0.00000000
  -V(xc)+E(xc)   XCENC  =      -356.44491785
  PAW double counting   =     12719.04469102   -12439.33552156
  entropy T*S    EENTRO =        -0.00045342
  eigenvalues    EBANDS =      -700.72570218
  atomic energy  EATOM  =      9221.34024497
  Solvation  Ediel_sol  =         0.00000000
  ---------------------------------------------------
  free energy    TOTEN  =      -119.63394521 eV

  energy without entropy =     -119.63349179  energy(sigma->0) =     -119.63371850


--------------------------------------------------------------------------------------------------------




--------------------------------------- Iteration      1(  18)  ---------------------------------------


    POTLOK:  cpu time      0.4086: real time      0.4091
    SETDIJ:  cpu time      0.7863: real time      0.7869
     EDDAV:  cpu time     49.4681: real time     49.5208
       DOS:  cpu time      0.0029: real time      0.0029
    CHARGE:  cpu time      3.9623: real time      3.9668
    MIXING:  cpu time      0.1016: real time      0.1017
    --------------------------------------------
      LOOP:  cpu time     54.7299: real time     54.7882

 eigenvalue-minimisations  :  2896
 total energy-change (2. order) : 0.8927769E-01  (-0.1365216E-01)
 number of electron     140.0000001 magnetization 
 augmentation part       27.5069005 magnetization 

 Broyden mixing:
  rms(total) = 0.29378E+00    rms(broyden)= 0.29378E+00
  rms(prec ) = 0.30527E+00
  weight for this iteration     100.00

 eigenvalues of (default mixing * dielectric matrix)
  average eigenvalue GAMMA=   2.7561
  8.9158  3.5649  1.7513  0.8911  0.8911  0.5224

 Free energy of the ion-electron system (eV)
  ---------------------------------------------------
  alpha Z        PSCENC =        66.99798409
  Ewald energy   TEWEN  =     29846.57578200
  -Hartree energ DENC   =    -38475.08740024
  -exchange      EXHF   =         0.00000000
  -V(xc)+E(xc)   XCENC  =      -356.15174586
  PAW double counting   =     13271.90870464   -12995.98170024
  entropy T*S    EENTRO =        -0.00000205
  eigenvalues    EBANDS =      -699.14653483
  atomic energy  EATOM  =      9221.34024497
  Solvation  Ediel_sol  =         0.00000000
  ---------------------------------------------------
  free energy    TOTEN  =      -119.54466752 eV

  energy without entropy =     -119.54466547  energy(sigma->0) =     -119.54466650


--------------------------------------------------------------------------------------------------------




--------------------------------------- Iteration      1(  19)  ---------------------------------------


    POTLOK:  cpu time      0.4112: real time      0.4117
    SETDIJ:  cpu time      0.7867: real time      0.7872
     EDDAV:  cpu time     45.2207: real time     45.2681
       DOS:  cpu time      0.0048: real time      0.0048
    CHARGE:  cpu time      3.8176: real time      3.8207
    MIXING:  cpu time      0.0822: real time      0.0822
    --------------------------------------------
      LOOP:  cpu time     50.3231: real time     50.3749

 eigenvalue-minimisations  :  2584
 total energy-change (2. order) : 0.1613448E+00  (-0.5872267E-01)
 number of electron     140.0000001 magnetization 
 augmentation part       27.3018285 magnetization 

 Broyden mixing:
  rms(total) = 0.25817E+00    rms(broyden)= 0.25817E+00
  rms(prec ) = 0.25908E+00
  weight for this iteration     100.00

 eigenvalues of (default mixing * dielectric matrix)
  average eigenvalue GAMMA=   2.4556
  8.9749  3.5447  2.0728  0.8784  0.8784  0.5250  0.3149

 Free energy of the ion-electron system (eV)
  ---------------------------------------------------
  alpha Z        PSCENC =        66.99798409
  Ewald energy   TEWEN  =     29846.57578200
  -Hartree energ DENC   =    -38449.89031755
  -exchange      EXHF   =         0.00000000
  -V(xc)+E(xc)   XCENC  =      -355.99889642
  PAW double counting   =     13648.68959973   -13376.94115688
  entropy T*S    EENTRO =        -0.00000000
  eigenvalues    EBANDS =      -720.15656262
  atomic energy  EATOM  =      9221.34024497
  Solvation  Ediel_sol  =         0.00000000
  ---------------------------------------------------
  free energy    TOTEN  =      -119.38332268 eV

  energy without entropy =     -119.38332268  energy(sigma->0) =     -119.38332268


--------------------------------------------------------------------------------------------------------




--------------------------------------- Iteration      1(  20)  ---------------------------------------


    POTLOK:  cpu time      0.4097: real time      0.4110
    SETDIJ:  cpu time      0.7874: real time      0.7880
     EDDAV:  cpu time     44.1018: real time     44.1487
       DOS:  cpu time      0.0028: real time      0.0028
    CHARGE:  cpu time      3.8945: real time      3.8980
    MIXING:  cpu time      0.0890: real time      0.0891
    --------------------------------------------
      LOOP:  cpu time     49.2852: real time     49.3377

 eigenvalue-minimisations  :  2504
 total energy-change (2. order) :-0.5586443E-02  (-0.8174939E-02)
 number of electron     140.0000001 magnetization 
 augmentation part       27.2717621 magnetization 

 Broyden mixing:
  rms(total) = 0.15852E+00    rms(broyden)= 0.15852E+00
  rms(prec ) = 0.15958E+00
  weight for this iteration     100.00

 eigenvalues of (default mixing * dielectric matrix)
  average eigenvalue GAMMA=   2.3282
  8.9489  3.7066  2.2682  0.8877  0.8877  0.7078  0.7078  0.5113

 Free energy of the ion-electron system (eV)
  ---------------------------------------------------
  alpha Z        PSCENC =        66.99798409
  Ewald energy   TEWEN  =     29846.57578200
  -Hartree energ DENC   =    -38447.75346451
  -exchange      EXHF   =         0.00000000
  -V(xc)+E(xc)   XCENC  =      -355.98644071
  PAW double counting   =     13706.15088562   -13434.69742385
  entropy T*S    EENTRO =        -0.00000000
  eigenvalues    EBANDS =      -722.01647673
  atomic energy  EATOM  =      9221.34024497
  Solvation  Ediel_sol  =         0.00000000
  ---------------------------------------------------
  free energy    TOTEN  =      -119.38890912 eV

  energy without entropy =     -119.38890912  energy(sigma->0) =     -119.38890912


--------------------------------------------------------------------------------------------------------




--------------------------------------- Iteration      1(  21)  ---------------------------------------


    POTLOK:  cpu time      0.4119: real time      0.4123
    SETDIJ:  cpu time      0.7869: real time      0.7875
     EDDAV:  cpu time     55.4106: real time     55.5568
       DOS:  cpu time      0.0018: real time      0.0018
    CHARGE:  cpu time      3.7852: real time      3.7885
    MIXING:  cpu time      0.0919: real time      0.0920
    --------------------------------------------
      LOOP:  cpu time     60.4884: real time     60.6389

 eigenvalue-minimisations  :  3328
 total energy-change (2. order) : 0.3263656E-02  (-0.6997996E-03)
 number of electron     140.0000001 magnetization 
 augmentation part       27.2672774 magnetization 

 Broyden mixing:
  rms(total) = 0.13329E+00    rms(broyden)= 0.13329E+00
  rms(prec ) = 0.13416E+00
  weight for this iteration     100.00

 eigenvalues of (default mixing * dielectric matrix)
  average eigenvalue GAMMA=   2.2604
  9.0012  3.8995  1.9941  1.3108  1.3108  0.8951  0.8951  0.5443  0.4924

 Free energy of the ion-electron system (eV)
  ---------------------------------------------------
  alpha Z        PSCENC =        66.99798409
  Ewald energy   TEWEN  =     29846.57578200
  -Hartree energ DENC   =    -38447.04719761
  -exchange      EXHF   =         0.00000000
  -V(xc)+E(xc)   XCENC  =      -355.99886944
  PAW double counting   =     13725.39399795   -13454.13098301
  entropy T*S    EENTRO =        -0.00000000
  eigenvalues    EBANDS =      -722.51660441
  atomic energy  EATOM  =      9221.34024497
  Solvation  Ediel_sol  =         0.00000000
  ---------------------------------------------------
  free energy    TOTEN  =      -119.38564547 eV

  energy without entropy =     -119.38564547  energy(sigma->0) =     -119.38564547


--------------------------------------------------------------------------------------------------------




--------------------------------------- Iteration      1(  22)  ---------------------------------------


    POTLOK:  cpu time      0.4123: real time      0.4127
    SETDIJ:  cpu time      0.7865: real time      0.7872
     EDDAV:  cpu time     56.5749: real time     56.6372
       DOS:  cpu time      0.0029: real time      0.0029
    CHARGE:  cpu time      3.9335: real time      3.9371
    MIXING:  cpu time      0.0990: real time      0.0991
    --------------------------------------------
      LOOP:  cpu time     61.8092: real time     61.8762

 eigenvalue-minimisations  :  3416
 total energy-change (2. order) : 0.2432605E-02  (-0.5579397E-03)
 number of electron     140.0000001 magnetization 
 augmentation part       27.2518095 magnetization 

 Broyden mixing:
  rms(total) = 0.11541E+00    rms(broyden)= 0.11541E+00
  rms(prec ) = 0.11586E+00
  weight for this iteration     100.00

 eigenvalues of (default mixing * dielectric matrix)
  average eigenvalue GAMMA=   2.3573
  9.2201  4.6784  3.1912  1.5289  1.5289  0.8694  0.8694  0.5088  0.5886  0.5886

 Free energy of the ion-electron system (eV)
  ---------------------------------------------------
  alpha Z        PSCENC =        66.99798409
  Ewald energy   TEWEN  =     29846.57578200
  -Hartree energ DENC   =    -38446.82561602
  -exchange      EXHF   =         0.00000000
  -V(xc)+E(xc)   XCENC  =      -355.99785502
  PAW double counting   =     13762.20962286   -13491.22636353
  entropy T*S    EENTRO =        -0.00000000
  eigenvalues    EBANDS =      -722.45701220
  atomic energy  EATOM  =      9221.34024497
  Solvation  Ediel_sol  =         0.00000000
  ---------------------------------------------------
  free energy    TOTEN  =      -119.38321286 eV

  energy without entropy =     -119.38321286  energy(sigma->0) =     -119.38321286


--------------------------------------------------------------------------------------------------------




--------------------------------------- Iteration      1(  23)  ---------------------------------------


    POTLOK:  cpu time      0.4114: real time      0.4118
    SETDIJ:  cpu time      0.7859: real time      0.7865
     EDDAV:  cpu time     50.9249: real time     50.9803
       DOS:  cpu time      0.0029: real time      0.0029
    CHARGE:  cpu time      3.8228: real time      3.8275
    MIXING:  cpu time      0.0914: real time      0.0914
    --------------------------------------------
      LOOP:  cpu time     56.0393: real time     56.1004

 eigenvalue-minimisations  :  3000
 total energy-change (2. order) : 0.1347446E-02  (-0.7627885E-03)
 number of electron     140.0000001 magnetization 
 augmentation part       27.2338328 magnetization 

 Broyden mixing:
  rms(total) = 0.85920E-01    rms(broyden)= 0.85919E-01
  rms(prec ) = 0.86241E-01
  weight for this iteration     100.00

 eigenvalues of (default mixing * dielectric matrix)
  average eigenvalue GAMMA=   2.4527
  9.4758  6.4103  3.8779  1.8709  1.1529  0.8908  0.8908  0.7150  0.7150  0.5252
  0.4555

 Free energy of the ion-electron system (eV)
  ---------------------------------------------------
  alpha Z        PSCENC =        66.99798409
  Ewald energy   TEWEN  =     29846.57578200
  -Hartree energ DENC   =    -38446.16661563
  -exchange      EXHF   =         0.00000000
  -V(xc)+E(xc)   XCENC  =      -355.99027958
  PAW double counting   =     13855.88577047   -13585.37466893
  entropy T*S    EENTRO =        -0.00000000
  eigenvalues    EBANDS =      -722.65008281
  atomic energy  EATOM  =      9221.34024497
  Solvation  Ediel_sol  =         0.00000000
  ---------------------------------------------------
  free energy    TOTEN  =      -119.38186542 eV

  energy without entropy =     -119.38186542  energy(sigma->0) =     -119.38186542


--------------------------------------------------------------------------------------------------------




--------------------------------------- Iteration      1(  24)  ---------------------------------------


    POTLOK:  cpu time      0.4115: real time      0.4119
    SETDIJ:  cpu time      0.7935: real time      0.7943
     EDDAV:  cpu time     50.9850: real time     51.0403
       DOS:  cpu time      0.0038: real time      0.0038
    CHARGE:  cpu time      3.9400: real time      3.9435
    MIXING:  cpu time      0.0997: real time      0.0997
    --------------------------------------------
      LOOP:  cpu time     56.2335: real time     56.2935

 eigenvalue-minimisations  :  3008
 total energy-change (2. order) : 0.4799565E-04  (-0.4391763E-03)
 number of electron     140.0000001 magnetization 
 augmentation part       27.2378293 magnetization 

 Broyden mixing:
  rms(total) = 0.50104E-01    rms(broyden)= 0.50104E-01
  rms(prec ) = 0.50440E-01
  weight for this iteration     100.00

 eigenvalues of (default mixing * dielectric matrix)
  average eigenvalue GAMMA=   2.4187
  9.6056  7.3267  4.0428  2.0126  0.9213  0.9408  0.9408  0.8619  0.8619  0.5527
  0.4789  0.4789

 Free energy of the ion-electron system (eV)
  ---------------------------------------------------
  alpha Z        PSCENC =        66.99798409
  Ewald energy   TEWEN  =     29846.57578200
  -Hartree energ DENC   =    -38447.29388248
  -exchange      EXHF   =         0.00000000
  -V(xc)+E(xc)   XCENC  =      -355.99660474
  PAW double counting   =     13917.45039241   -13647.08694081
  entropy T*S    EENTRO =        -0.00000000
  eigenvalues    EBANDS =      -721.36879286
  atomic energy  EATOM  =      9221.34024497
  Solvation  Ediel_sol  =         0.00000000
  ---------------------------------------------------
  free energy    TOTEN  =      -119.38181742 eV

  energy without entropy =     -119.38181742  energy(sigma->0) =     -119.38181742


--------------------------------------------------------------------------------------------------------




--------------------------------------- Iteration      1(  25)  ---------------------------------------


    POTLOK:  cpu time      0.4117: real time      0.4122
    SETDIJ:  cpu time      0.7833: real time      0.7839
     EDDAV:  cpu time     53.8808: real time     53.9403
       DOS:  cpu time      0.0037: real time      0.0037
    CHARGE:  cpu time      3.8430: real time      3.8463
    MIXING:  cpu time      0.0961: real time      0.0962
    --------------------------------------------
      LOOP:  cpu time     59.0187: real time     59.0825

 eigenvalue-minimisations  :  3216
 total energy-change (2. order) :-0.1941700E-03  (-0.1575187E-03)
 number of electron     140.0000001 magnetization 
 augmentation part       27.2445758 magnetization 

 Broyden mixing:
  rms(total) = 0.39269E-01    rms(broyden)= 0.39269E-01
  rms(prec ) = 0.39642E-01
  weight for this iteration     100.00

 eigenvalues of (default mixing * dielectric matrix)
  average eigenvalue GAMMA=   2.3401
  9.3306  7.3549  4.1289  2.0928  1.3565  1.3565  0.8902  0.8902  0.7807  0.7807
  0.5108  0.5108  0.4374

 Free energy of the ion-electron system (eV)
  ---------------------------------------------------
  alpha Z        PSCENC =        66.99798409
  Ewald energy   TEWEN  =     29846.57578200
  -Hartree energ DENC   =    -38447.98311127
  -exchange      EXHF   =         0.00000000
  -V(xc)+E(xc)   XCENC  =      -356.00222599
  PAW double counting   =     13937.74082780   -13667.37520047
  entropy T*S    EENTRO =        -0.00000000
  eigenvalues    EBANDS =      -720.67631272
  atomic energy  EATOM  =      9221.34024497
  Solvation  Ediel_sol  =         0.00000000
  ---------------------------------------------------
  free energy    TOTEN  =      -119.38201159 eV

  energy without entropy =     -119.38201159  energy(sigma->0) =     -119.38201159


--------------------------------------------------------------------------------------------------------




--------------------------------------- Iteration      1(  26)  ---------------------------------------


    POTLOK:  cpu time      0.4120: real time      0.4125
    SETDIJ:  cpu time      0.7854: real time      0.7859
     EDDAV:  cpu time     49.4564: real time     49.5105
       DOS:  cpu time      0.0036: real time      0.0036
    CHARGE:  cpu time      3.9172: real time      3.9207
    MIXING:  cpu time      0.1030: real time      0.1030
    --------------------------------------------
      LOOP:  cpu time     54.6776: real time     54.7362

 eigenvalue-minimisations  :  2896
 total energy-change (2. order) : 0.2592559E-03  (-0.5971171E-04)
 number of electron     140.0000001 magnetization 
 augmentation part       27.2482593 magnetization 

 Broyden mixing:
  rms(total) = 0.39122E-01    rms(broyden)= 0.39122E-01
  rms(prec ) = 0.39316E-01
  weight for this iteration     100.00

 eigenvalues of (default mixing * dielectric matrix)
  average eigenvalue GAMMA=   2.3034
  9.2809  7.3135  4.0940  2.0459  2.0459  1.8348  0.9225  0.9225  0.8581  0.7470
  0.7470  0.5254  0.4681  0.4417

 Free energy of the ion-electron system (eV)
  ---------------------------------------------------
  alpha Z        PSCENC =        66.99798409
  Ewald energy   TEWEN  =     29846.57578200
  -Hartree energ DENC   =    -38447.89190635
  -exchange      EXHF   =         0.00000000
  -V(xc)+E(xc)   XCENC  =      -356.00388341
  PAW double counting   =     13935.44677013   -13665.02989873
  entropy T*S    EENTRO =        -0.00000000
  eigenvalues    EBANDS =      -720.81684503
  atomic energy  EATOM  =      9221.34024497
  Solvation  Ediel_sol  =         0.00000000
  ---------------------------------------------------
  free energy    TOTEN  =      -119.38175234 eV

  energy without entropy =     -119.38175234  energy(sigma->0) =     -119.38175234


--------------------------------------------------------------------------------------------------------




--------------------------------------- Iteration      1(  27)  ---------------------------------------


    POTLOK:  cpu time      0.4116: real time      0.4120
    SETDIJ:  cpu time      0.7818: real time      0.7826
     EDDAV:  cpu time     47.1978: real time     47.2498
       DOS:  cpu time      0.0032: real time      0.0032
    CHARGE:  cpu time      3.8038: real time      3.8070
    MIXING:  cpu time      0.0883: real time      0.0884
    --------------------------------------------
      LOOP:  cpu time     52.2865: real time     52.3430

 eigenvalue-minimisations  :  2728
 total energy-change (2. order) : 0.1783053E-03  (-0.4139211E-04)
 number of electron     140.0000001 magnetization 
 augmentation part       27.2434753 magnetization 

 Broyden mixing:
  rms(total) = 0.35477E-01    rms(broyden)= 0.35477E-01
  rms(prec ) = 0.35567E-01
  weight for this iteration     100.00

 eigenvalues of (default mixing * dielectric matrix)
  average eigenvalue GAMMA=   2.3615
  9.3751  7.7837  4.2839  2.6933  2.6933  1.8252  0.9301  0.9304  0.9304  0.8827
  0.8827  0.7721  0.5253  0.4802  0.4342

 Free energy of the ion-electron system (eV)
  ---------------------------------------------------
  alpha Z        PSCENC =        66.99798409
  Ewald energy   TEWEN  =     29846.57578200
  -Hartree energ DENC   =    -38447.62310805
  -exchange      EXHF   =         0.00000000
  -V(xc)+E(xc)   XCENC  =      -355.99962530
  PAW double counting   =     13943.70483220   -13673.32374017
  entropy T*S    EENTRO =        -0.00000000
  eigenvalues    EBANDS =      -721.05394375
  atomic energy  EATOM  =      9221.34024497
  Solvation  Ediel_sol  =         0.00000000
  ---------------------------------------------------
  free energy    TOTEN  =      -119.38157403 eV

  energy without entropy =     -119.38157403  energy(sigma->0) =     -119.38157403


--------------------------------------------------------------------------------------------------------




--------------------------------------- Iteration      1(  28)  ---------------------------------------


    POTLOK:  cpu time      0.4111: real time      0.4126
    SETDIJ:  cpu time      0.7929: real time      0.7935
     EDDAV:  cpu time     49.0175: real time     49.0687
       DOS:  cpu time      0.0035: real time      0.0035
    CHARGE:  cpu time      3.8931: real time      3.8972
    MIXING:  cpu time      0.0935: real time      0.0936
    --------------------------------------------
      LOOP:  cpu time     54.2116: real time     54.2691

 eigenvalue-minimisations  :  2864
 total energy-change (2. order) : 0.3009716E-04  (-0.1164318E-04)
 number of electron     140.0000001 magnetization 
 augmentation part       27.2429174 magnetization 

 Broyden mixing:
  rms(total) = 0.25672E-01    rms(broyden)= 0.25672E-01
  rms(prec ) = 0.25742E-01
  weight for this iteration     100.00

 eigenvalues of (default mixing * dielectric matrix)
  average eigenvalue GAMMA=   2.3437
  9.4891  8.0045  4.6077  2.8961  2.8961  1.8524  1.0616  1.0616  0.9184  0.9054
  0.9054  0.7304  0.7304  0.5261  0.4792  0.4348

 Free energy of the ion-electron system (eV)
  ---------------------------------------------------
  alpha Z        PSCENC =        66.99798409
  Ewald energy   TEWEN  =     29846.57578200
  -Hartree energ DENC   =    -38447.63996841
  -exchange      EXHF   =         0.00000000
  -V(xc)+E(xc)   XCENC  =      -355.99761870
  PAW double counting   =     13957.94140280   -13687.58218273
  entropy T*S    EENTRO =        -0.00000000
  eigenvalues    EBANDS =      -721.01718795
  atomic energy  EATOM  =      9221.34024497
  Solvation  Ediel_sol  =         0.00000000
  ---------------------------------------------------
  free energy    TOTEN  =      -119.38154393 eV

  energy without entropy =     -119.38154393  energy(sigma->0) =     -119.38154393


--------------------------------------------------------------------------------------------------------




--------------------------------------- Iteration      1(  29)  ---------------------------------------


    POTLOK:  cpu time      0.4127: real time      0.4131
    SETDIJ:  cpu time      0.7885: real time      0.7891
     EDDAV:  cpu time     33.7730: real time     33.8092
       DOS:  cpu time      0.0038: real time      0.0038
    CHARGE:  cpu time      3.8339: real time      3.8385
    MIXING:  cpu time      0.0924: real time      0.0925
    --------------------------------------------
      LOOP:  cpu time     38.9042: real time     38.9462

 eigenvalue-minimisations  :  1744
 total energy-change (2. order) : 0.1978062E-04  (-0.3448594E-05)
 number of electron     140.0000001 magnetization 
 augmentation part       27.2418733 magnetization 

 Broyden mixing:
  rms(total) = 0.20378E-01    rms(broyden)= 0.20378E-01
  rms(prec ) = 0.20442E-01
  weight for this iteration     100.00

 eigenvalues of (default mixing * dielectric matrix)
  average eigenvalue GAMMA=   2.3862
  9.4734  8.2584  5.7013  2.9039  2.9039  2.2909  1.5879  1.0254  0.9269  0.9269
  0.9084  0.7775  0.7775  0.6625  0.5258  0.4803  0.4348

 Free energy of the ion-electron system (eV)
  ---------------------------------------------------
  alpha Z        PSCENC =        66.99798409
  Ewald energy   TEWEN  =     29846.57578200
  -Hartree energ DENC   =    -38447.60870053
  -exchange      EXHF   =         0.00000000
  -V(xc)+E(xc)   XCENC  =      -355.99590491
  PAW double counting   =     13966.82966291   -13696.48318813
  entropy T*S    EENTRO =        -0.00000000
  eigenvalues    EBANDS =      -721.03740454
  atomic energy  EATOM  =      9221.34024497
  Solvation  Ediel_sol  =         0.00000000
  ---------------------------------------------------
  free energy    TOTEN  =      -119.38152415 eV

  energy without entropy =     -119.38152415  energy(sigma->0) =     -119.38152415


--------------------------------------------------------------------------------------------------------




--------------------------------------- Iteration      1(  30)  ---------------------------------------


    POTLOK:  cpu time      0.4116: real time      0.4123
    SETDIJ:  cpu time      0.7876: real time      0.7881
     EDDAV:  cpu time     40.1616: real time     40.2049
       DOS:  cpu time      0.0032: real time      0.0032
    CHARGE:  cpu time      3.9251: real time      3.9284
    MIXING:  cpu time      0.1041: real time      0.1042
    --------------------------------------------
      LOOP:  cpu time     45.3932: real time     45.4410

 eigenvalue-minimisations  :  2216
 total energy-change (2. order) : 0.1881990E-04  (-0.4318361E-05)
 number of electron     140.0000001 magnetization 
 augmentation part       27.2406968 magnetization 

 Broyden mixing:
  rms(total) = 0.15504E-01    rms(broyden)= 0.15504E-01
  rms(prec ) = 0.15562E-01
  weight for this iteration     100.00

[...]
     46      -3.3789      2.00000
     47      -3.3459      2.00000
     48      -3.3187      2.00000
     49      -3.3104      2.00000
     50      -3.2852      2.00000
     51      -3.1049      2.00000
     52      -3.0644      2.00000
     53      -3.0337      2.00000
     54      -2.9969      2.00000
     55      -2.9546      2.00000
     56      -2.9015      2.00000
     57      -2.6068      2.00000
     58      -2.6002      2.00000
     59      -2.4949      2.00000
     60      -2.4947      2.00000
     61      -2.4756      2.00000
     62      -2.4189      2.00000
     63      -2.3844      2.00000
     64      -2.3099      2.00000
     65      -2.2435      2.00000
     66      -2.1709      2.00000
     67      -2.0897      2.00000
     68      -1.9640      2.00000
     69      -1.8105      2.00000
     70      -1.8014      2.00000
     71      -0.7717      0.00000
     72      -0.7192      0.00000
     73      -0.2166      0.00000
     74      -0.0792      0.00000
     75       0.0951      0.00000
     76       0.1284      0.00000
     77       0.1469      0.00000
     78       0.3847      0.00000
     79       0.5631      0.00000
     80       0.6731      0.00000
     81       0.8210      0.00000
     82       0.8914      0.00000
     83       0.8974      0.00000
     84       0.9631      0.00000
     85       1.0595      0.00000
     86       1.2655      0.00000
     87       1.5122      0.00000
     88       1.6033      0.00000

 k-point    12 :       0.5000    0.4545   -0.0000
  band No.  band energies     occupation 
      1     -12.6407      2.00000
      2     -12.6401      2.00000
      3     -12.5291      2.00000
      4     -12.5287      2.00000
      5     -12.4431      2.00000
      6     -12.4426      2.00000
      7     -12.3212      2.00000
      8     -12.3209      2.00000
      9     -12.1777      2.00000
     10     -12.1775      2.00000
     11      -7.3302      2.00000
     12      -7.3301      2.00000
     13      -7.0960      2.00000
     14      -7.0958      2.00000
     15      -6.4796      2.00000
     16      -6.4796      2.00000
     17      -6.0838      2.00000
     18      -6.0833      2.00000
     19      -5.9050      2.00000
     20      -5.9045      2.00000
     21      -5.2327      2.00000
     22      -5.2321      2.00000
     23      -5.1325      2.00000
     24      -5.1320      2.00000
     25      -4.8328      2.00000
     26      -4.8322      2.00000
     27      -4.7509      2.00000
     28      -4.7504      2.00000
     29      -4.6208      2.00000
     30      -4.6203      2.00000
     31      -4.5238      2.00000
     32      -4.5235      2.00000
     33      -4.3981      2.00000
     34      -4.3980      2.00000
     35      -4.3628      2.00000
     36      -4.3626      2.00000
     37      -4.0844      2.00000
     38      -4.0839      2.00000
     39      -3.9980      2.00000
     40      -3.9977      2.00000
     41      -3.8263      2.00000
     42      -3.8259      2.00000
     43      -3.6108      2.00000
     44      -3.6108      2.00000
     45      -3.4562      2.00000
     46      -3.4555      2.00000
     47      -3.3279      2.00000
     48      -3.3277      2.00000
     49      -3.3050      2.00000
     50      -3.3043      2.00000
     51      -3.1054      2.00000
     52      -3.1050      2.00000
     53      -2.9565      2.00000
     54      -2.9559      2.00000
     55      -2.9013      2.00000
     56      -2.9004      2.00000
     57      -2.6332      2.00000
     58      -2.6329      2.00000
     59      -2.4973      2.00000
     60      -2.4970      2.00000
     61      -2.4609      2.00000
     62      -2.4606      2.00000
     63      -2.2926      2.00000
     64      -2.2924      2.00000
     65      -2.2544      2.00000
     66      -2.2539      2.00000
     67      -2.0267      2.00000
     68      -2.0266      2.00000
     69      -1.8042      2.00000
     70      -1.8037      2.00000
     71      -0.7407      0.00000
     72      -0.7400      0.00000
     73      -0.0997      0.00000
     74      -0.0990      0.00000
     75       0.1135      0.00000
     76       0.1140      0.00000
     77       0.2084      0.00000
     78       0.2085      0.00000
     79       0.6515      0.00000
     80       0.6515      0.00000
     81       0.8595      0.00000
     82       0.8596      0.00000
     83       0.9598      0.00000
     84       0.9602      0.00000
     85       1.0521      0.00000
     86       1.0522      0.00000
     87       1.7127      0.00000
     88       1.7128      0.00000


--------------------------------------------------------------------------------------------------------


 soft charge-density along one line, spin component           1
         0         1         2         3         4         5         6         7         8         9
 total charge-density along one line
 
 pseudopotential strength for first ion, spin component:           1
 -7.677   0.001  -0.000  -0.000   0.000  -9.198   0.001  -0.000
  0.001  -7.684  -0.000   0.000   0.000   0.001  -9.206  -0.000
 -0.000  -0.000  -7.688   0.004  -0.005  -0.000  -0.000  -9.210
 -0.000   0.000   0.004  -7.686   0.002  -0.000   0.000   0.005
  0.000   0.000  -0.005   0.002  -7.685   0.000   0.000  -0.006
 -9.198   0.001  -0.000  -0.000   0.000 -11.000   0.001  -0.000
  0.001  -9.206  -0.000   0.000   0.000   0.001 -11.011  -0.000
 -0.000  -0.000  -9.210   0.005  -0.006  -0.000  -0.000 -11.016
 -0.000   0.000   0.005  -9.208   0.003  -0.000   0.000   0.006
  0.000   0.000  -0.006   0.003  -9.208   0.000   0.000  -0.007
 -0.000   0.000   0.002  -0.002  -0.004  -0.000   0.000   0.002
 -0.000   0.000   0.003  -0.003  -0.006  -0.000   0.000   0.004
  0.003  -0.002  -0.000   0.000  -0.000   0.004  -0.002  -0.000
  0.000   0.000  -0.006   0.008  -0.004   0.000   0.000  -0.007
  0.000   0.000  -0.001  -0.009   0.007   0.000   0.000  -0.002
 -0.003   0.003   0.000  -0.000   0.000  -0.003   0.004   0.000
 -0.000  -0.000   0.008  -0.008   0.004  -0.000  -0.000   0.009
 -0.000  -0.000   0.001   0.011  -0.008  -0.000  -0.000   0.002
 total augmentation occupancy for first ion, spin component:           1
  4.868   0.656   0.000   0.000  -0.000  -2.547  -0.484   0.000  -0.000   0.000   0.000  -0.000  -0.154   0.000  -0.000  -0.007
  0.656   5.605   0.000   0.000  -0.000  -0.484  -3.073  -0.000  -0.000   0.000  -0.000   0.000   0.202   0.000   0.000   0.007
  0.000   0.000   3.472   0.413  -0.576   0.000  -0.000  -1.733  -0.217   0.321  -0.176   0.045  -0.000   0.089   0.106   0.000
  0.000   0.000   0.413   4.410  -0.595  -0.000  -0.000  -0.217  -2.396   0.418   0.090  -0.027   0.000   0.035  -0.257  -0.000
 -0.000  -0.000  -0.576  -0.595   4.244   0.000   0.000   0.321   0.418  -2.307   0.229  -0.038  -0.000  -0.250   0.008  -0.000
 -2.547  -0.484   0.000  -0.000   0.000   1.382   0.339  -0.000   0.000  -0.000  -0.000   0.000   0.096  -0.000   0.000   0.004
 -0.484  -3.073  -0.000  -0.000   0.000   0.339   1.763   0.000   0.000  -0.000   0.000  -0.000  -0.124  -0.000  -0.000  -0.005
  0.000  -0.000  -1.733  -0.217   0.321  -0.000   0.000   0.914   0.125  -0.180   0.121  -0.022   0.000  -0.055  -0.059  -0.000
 -0.000  -0.000  -0.217  -2.396   0.418   0.000   0.000   0.125   1.359  -0.289  -0.062   0.016  -0.000  -0.012   0.167   0.000
  0.000   0.000   0.321   0.418  -2.307  -0.000  -0.000  -0.180  -0.289   1.298  -0.103   0.018   0.000   0.147  -0.015   0.000
  0.000  -0.000  -0.176   0.090   0.229  -0.000   0.000   0.121  -0.062  -0.103   1.886  -0.229   0.000   0.015  -0.047   0.000
 -0.000   0.000   0.045  -0.027  -0.038   0.000  -0.000  -0.022   0.016   0.018  -0.229   0.031   0.000   0.003   0.001   0.000
 -0.154   0.202  -0.000   0.000  -0.000   0.096  -0.124   0.000  -0.000   0.000   0.000   0.000   0.312   0.000   0.000   0.010
  0.000   0.000   0.089   0.035  -0.250  -0.000  -0.000  -0.055  -0.012   0.147   0.015   0.003   0.000   0.304   0.012   0.000
 -0.000   0.000   0.106  -0.257   0.008   0.000  -0.000  -0.059   0.167  -0.015  -0.047   0.001   0.000   0.012   0.343   0.000
 -0.007   0.007   0.000  -0.000  -0.000   0.004  -0.005  -0.000   0.000   0.000   0.000   0.000   0.010   0.000   0.000   0.000
 -0.000   0.000   0.005  -0.003  -0.007   0.000  -0.000  -0.003   0.001   0.005   0.001   0.000   0.000   0.009   0.001   0.000
 -0.000   0.000   0.004  -0.005  -0.002   0.000  -0.000  -0.002   0.004   0.001  -0.002   0.000   0.000   0.001   0.010   0.000


------------------------ aborting loop because EDIFF is reached ----------------------------------------





 total charge

# of ion       s       p       d       tot
------------------------------------------
    1        0.576   0.658   3.159   4.393
    2        0.576   0.658   3.159   4.393
    3        0.576   0.658   3.159   4.393
    4        0.576   0.658   3.159   4.393
    5        0.457   0.531   8.451   9.440
    6        0.457   0.531   8.451   9.440
    7        0.457   0.531   8.451   9.440
    8        0.457   0.531   8.452   9.440
    9        0.414   0.470   8.436   9.320
   10        0.414   0.470   8.436   9.320
   11        1.374   1.958   0.062   3.394
   12        1.374   1.958   0.062   3.394
   13        1.376   1.986   0.061   3.424
   14        1.376   1.986   0.061   3.424
   15        1.374   1.958   0.062   3.394
   16        1.374   1.958   0.062   3.394
   17        1.376   1.986   0.061   3.424
   18        1.376   1.986   0.061   3.424
   19        1.366   2.015   0.060   3.442
   20        1.366   2.015   0.060   3.442
--------------------------------------------------
tot         18.694  25.505  63.928 108.127
 
    CHARGE:  cpu time      3.8568: real time      3.8598
    FORLOC:  cpu time      0.1228: real time      0.1229
    FORNL :  cpu time     15.0850: real time     15.0988
    STRESS:  cpu time     45.6592: real time     45.6988
    FORCOR:  cpu time      0.4093: real time      0.4097
    FORHAR:  cpu time      0.1348: real time      0.1349
    MIXING:  cpu time      0.0209: real time      0.0209
    OFIELD:  cpu time      0.0001: real time      0.0001

  FORCE on cell =-STRESS in cart. coord.  units (eV):
  Direction    XX          YY          ZZ          XY          YZ          ZX
  --------------------------------------------------------------------------------------
  Alpha Z    66.99798    66.99798    66.99798
  Ewald   34419.20487 35129.83058-39702.47554    -0.00000     0.00022     0.12264
  Hartree 36198.04057 36981.03195-34732.05078     0.00000     0.00008     0.02324
  E(xc)    -658.22417  -657.43302  -660.37287     0.00000    -0.00000    -0.00177
  Local  -73064.48657-74574.84929 71959.76066     0.00000    -0.00027    -0.14022
  n-local  1021.12923  1014.06866  1029.05920    -0.00000     0.00001     0.01230
  augment   798.31257   814.82055   814.78715    -0.00000    -0.00000    -0.00524
  Kinetic  1219.03877  1225.63025  1224.33166     0.00001    -0.00001     0.00169
  Fock        0.00000     0.00000     0.00000     0.00000     0.00000     0.00000
  -------------------------------------------------------------------------------------
  Total       0.01326     0.09766     0.03746     0.00000     0.00000     0.01263
  in kB       0.01283     0.09443     0.03622     0.00000     0.00000     0.01222
  external pressure =        0.05 kB  Pullay stress =        0.00 kB


 VOLUME and BASIS-vectors are now :
 -----------------------------------------------------------------------------
  energy-cutoff  :      539.06
  volume of cell :     1656.92
      direct lattice vectors                 reciprocal lattice vectors
    17.803673428  0.000000000  0.000000000     0.056168184  0.000000000  0.000000000
     0.000000000  3.717366373  0.000000000     0.000000000  0.269007652 -0.000000000
     0.000000000  0.000000000 25.035562452     0.000000000  0.000000000  0.039943181

  length of vectors
    17.803673428  3.717366373 25.035562452     0.056168184  0.269007652  0.039943181


 FORCES acting on ions
    electron-ion (+dipol)            ewald-force                    non-local-force                 convergence-correction
 -----------------------------------------------------------------------------------------------
   -.109E+03 0.129E-04 0.500E+02   0.108E+03 -.388E-04 -.495E+02   0.636E+00 -.266E-16 -.444E+00   0.266E-02 -.166E-08 -.177E-02
   -.109E+03 -.187E-04 -.500E+02   0.108E+03 0.388E-04 0.496E+02   0.636E+00 0.265E-16 0.443E+00   -.142E-02 -.287E-08 0.912E-03
   0.109E+03 0.129E-04 0.500E+02   -.108E+03 -.388E-04 -.496E+02   -.645E+00 -.266E-16 -.444E+00   -.142E-02 -.922E-09 -.971E-03
   0.109E+03 -.187E-04 -.500E+02   -.109E+03 0.388E-04 0.495E+02   -.652E+00 0.266E-16 0.444E+00   0.174E-03 -.186E-08 0.207E-02
   0.813E+02 0.295E-04 0.563E+03   -.815E+02 -.961E-04 -.562E+03   0.216E+00 -.408E-16 -.681E+00   0.811E-02 -.698E-08 0.271E-01
   0.812E+02 -.281E-04 -.563E+03   -.814E+02 0.961E-04 0.562E+03   0.218E+00 0.408E-16 0.680E+00   -.441E-02 0.501E-08 -.252E-01
   -.810E+02 0.295E-04 0.562E+03   0.813E+02 -.961E-04 -.562E+03   -.222E+00 -.411E-16 -.687E+00   -.108E-01 -.428E-08 0.242E-01
   -.809E+02 -.281E-04 -.563E+03   0.812E+02 0.961E-04 0.562E+03   -.225E+00 0.411E-16 0.685E+00   0.665E-02 0.117E-07 -.273E-01
   -.544E+00 -.350E-05 0.492E+02   0.526E+00 -.448E-04 -.488E+02   0.138E-01 -.269E-16 -.449E+00   0.756E-02 -.220E-08 0.133E-01
   -.384E+00 0.204E-04 -.488E+02   0.381E+00 0.448E-04 0.484E+02   0.953E-02 0.271E-16 0.453E+00   -.714E-02 0.232E-08 -.144E-01
   -.105E+03 0.764E-04 0.708E+03   0.107E+03 0.334E-04 -.716E+03   -.145E+01 0.459E-15 0.767E+01   0.636E-02 0.248E-08 0.115E-01
   -.105E+03 0.163E-04 -.708E+03   0.107E+03 -.334E-04 0.716E+03   -.145E+01 -.460E-15 -.767E+01   -.245E-02 -.111E-08 -.818E-02
   0.538E+02 0.716E-06 0.658E+03   -.550E+02 -.899E-05 -.664E+03   0.118E+01 0.330E-15 0.551E+01   0.164E-02 -.343E-09 0.117E-01
   0.537E+02 0.105E-03 -.658E+03   -.549E+02 0.899E-05 0.664E+03   0.119E+01 -.330E-15 -.551E+01   -.915E-03 0.140E-08 -.112E-01
   0.105E+03 0.764E-04 0.708E+03   -.107E+03 0.335E-04 -.716E+03   0.145E+01 0.460E-15 0.767E+01   -.341E-02 0.174E-08 0.997E-02
   0.106E+03 0.163E-04 -.708E+03   -.107E+03 -.334E-04 0.716E+03   0.145E+01 -.460E-15 -.767E+01   -.819E-03 -.214E-08 -.947E-02
   -.539E+02 0.714E-06 0.659E+03   0.551E+02 -.898E-05 -.664E+03   -.118E+01 0.331E-15 0.552E+01   -.117E-02 -.417E-09 0.838E-02
   -.539E+02 0.105E-03 -.659E+03   0.551E+02 0.899E-05 0.664E+03   -.118E+01 -.330E-15 -.552E+01   0.326E-03 0.157E-08 -.142E-01
   -.127E+00 0.166E-04 0.600E+03   0.131E+00 -.293E-04 -.605E+03   -.377E-02 0.270E-15 0.450E+01   -.333E-02 -.174E-09 0.994E-02
   -.176E+00 0.841E-04 -.600E+03   0.170E+00 0.293E-04 0.604E+03   0.221E-02 -.270E-15 -.450E+01   0.365E-02 0.439E-09 -.710E-02
 -----------------------------------------------------------------------------------------------
   -.412E-02 0.505E-03 -.549E-02   -.799E-13 0.631E-13 -.227E-12   -.156E-01 0.215E-18 0.358E-02   -.125E-03 0.168E-08 -.658E-03
 
 
 POSITION                                       TOTAL-FORCE (eV/Angst)
 -----------------------------------------------------------------------------------
     15.51898      0.92934     12.44182        -0.003101     -0.000000     -0.001802
      6.61685      2.78802     12.59408        -0.003894     -0.000000     -0.000812
      2.29925      0.92934     12.44144         0.003015      0.000000      0.001931
     11.20189      2.78802     12.59429        -0.003725     -0.000000     -0.000922
     12.97833      0.92934     11.77745        -0.002826     -0.000000     -0.002168
      4.07598      2.78802     13.25903        -0.001859      0.000000      0.000310
      4.83946      0.92934     11.77709         0.001302     -0.000000     -0.001976
     13.74157      2.78802     13.25919         0.001554      0.000000      0.003122
      8.90704      0.92934     12.37051         0.004049     -0.000000     -0.002913
      0.00563      2.78802     12.66458         0.000940      0.000000      0.003535
     14.31190      2.78802     10.58080         0.003236      0.000000      0.004292
      5.40956      0.92934     14.45539         0.003870     -0.000000     -0.005259
     10.69318      0.92934     10.56251         0.004495     -0.000000     -0.001885
      1.79052      2.78802     14.47337         0.005883      0.000000      0.001212
      3.50692      2.78802     10.58040        -0.003079      0.000000      0.005027
     12.40877      0.92934     14.45569        -0.002549     -0.000000     -0.004827
      7.12347      0.92934     10.56106        -0.003132      0.000000      0.002513
     16.02572      2.78802     14.47455        -0.002734     -0.000000     -0.000855
      0.00715      0.92934     10.89807        -0.002346      0.000000      0.008926
      8.90899      2.78802     14.13663         0.000900     -0.000000     -0.007446
 -----------------------------------------------------------------------------------
    total drift:                               -0.019868      0.000505     -0.002568


--------------------------------------------------------------------------------------------------------



  FREE ENERGIE OF THE ION-ELECTRON SYSTEM (eV)
  ---------------------------------------------------
  free  energy   TOTEN  =      -119.38147066 eV

  energy  without entropy=     -119.38147066  energy(sigma->0) =     -119.38147066
 


--------------------------------------------------------------------------------------------------------


    POTLOK:  cpu time      1.1886: real time      1.1896


--------------------------------------------------------------------------------------------------------




--------------------------------------------------------------------------------------------------------


  
 reached required accuracy - stopping structural energy minimisation
     LOOP+:  cpu time   1658.4334: real time   1660.9854
    4ORBIT:  cpu time      0.0000: real time      0.0000



 total charge

# of ion       s       p       d       tot
------------------------------------------
    1        0.576   0.658   3.159   4.393
    2        0.576   0.658   3.159   4.393
    3        0.576   0.658   3.159   4.393
    4        0.576   0.658   3.159   4.393
    5        0.457   0.531   8.451   9.440
    6        0.457   0.531   8.451   9.440
    7        0.457   0.531   8.451   9.440
    8        0.457   0.531   8.452   9.440
    9        0.414   0.470   8.436   9.320
   10        0.414   0.470   8.436   9.320
   11        1.374   1.958   0.062   3.394
   12        1.374   1.958   0.062   3.394
   13        1.376   1.986   0.061   3.424
   14        1.376   1.986   0.061   3.424
   15        1.374   1.958   0.062   3.394
   16        1.374   1.958   0.062   3.394
   17        1.376   1.986   0.061   3.424
   18        1.376   1.986   0.061   3.424
   19        1.366   2.015   0.060   3.442
   20        1.366   2.015   0.060   3.442
--------------------------------------------------
tot         18.694  25.505  63.928 108.127
 

 total amount of memory used by VASP MPI-rank0   115344. kBytes
=======================================================================

   base      :      30000. kBytes
   nonlr-proj:       6626. kBytes
   fftplans  :      33507. kBytes
   grid      :      19976. kBytes
   one-center:         77. kBytes
   wavefun   :      25158. kBytes
 
  
  
 General timing and accounting informations for this job:
 ========================================================
  
                  Total CPU time used (sec):     1671.924
                            User time (sec):     1670.014
                          System time (sec):        1.910
                         Elapsed time (sec):     1675.391
  
                   Maximum memory used (kb):      439384.
                   Average memory used (kb):          N/A
  
                          Minor page faults:       344190
                          Major page faults:         4047
                 Voluntary context switches:          332
