Automatically generated mesh
      36
Reciprocal lattice
    0.00000000000000    0.00000000000000    0.00000000000000             1
    0.25000000000000    0.00000000000000    0.00000000000000             2
    0.50000000000000    0.00000000000000    0.00000000000000             1
    0.00000000000000    0.04545454545455   -0.00000000000000             2
    0.25000000000000    0.04545454545455   -0.00000000000000             4
    0.50000000000000    0.04545454545455   -0.00000000000000             2
    0.00000000000000    0.09090909090909   -0.00000000000000             2
    0.25000000000000    0.09090909090909   -0.00000000000000             4
    0.50000000000000    0.09090909090909   -0.00000000000000             2
    0.00000000000000    0.13636363636363   -0.00000000000000             2
    0.25000000000000    0.13636363636363   -0.00000000000000             4
    0.50000000000000    0.13636363636363   -0.00000000000000             2
    0.00000000000000    0.18181818181818    0.00000000000000             2
    0.25000000000000    0.18181818181818    0.00000000000000             4
    0.50000000000000    0.18181818181818    0.00000000000000             2
    0.00000000000000    0.22727272727273   -0.00000000000000             2
    0.25000000000000    0.22727272727273   -0.00000000000000             4
    0.50000000000000    0.22727272727273   -0.00000000000000             2
    0.00000000000000    0.27272727272727    0.00000000000000             2
    0.25000000000000    0.27272727272727    0.00000000000000             4
    0.50000000000000    0.27272727272727    0.00000000000000             2
    0.00000000000000    0.31818181818182   -0.00000000000000             2
    0.25000000000000    0.31818181818182   -0.00000000000000             4
    0.50000000000000    0.31818181818182   -0.00000000000000             2
    0.00000000000000    0.36363636363637   -0.00000000000000             2
    0.25000000000000    0.36363636363637   -0.00000000000000             4
    0.50000000000000    0.36363636363637   -0.00000000000000             2
    0.00000000000000    0.40909090909091   -0.00000000000000             2
    0.25000000000000    0.40909090909091   -0.00000000000000             4
    0.50000000000000    0.40909090909091   -0.00000000000000             2
    0.00000000000000    0.45454545454545   -0.00000000000000             2
    0.25000000000000    0.45454545454545   -0.00000000000000             4
    0.50000000000000    0.45454545454545   -0.00000000000000             2
    0.00000000000000    0.50000000000000    0.00000000000000             1
    0.25000000000000    0.50000000000000    0.00000000000000             2
    0.50000000000000    0.50000000000000    0.00000000000000             1
