       N       E                     dE             d eps       ncg     rms          rms(c)
DAV:   1     0.660871045771E+03    0.66087E+03   -0.34209E+04 10280   0.491E+02
DAV:   2    -0.508453705823E+02   -0.71172E+03   -0.67355E+03 13064   0.155E+02
DAV:   3    -0.123477054317E+03   -0.72632E+02   -0.70441E+02 13336   0.541E+01
DAV:   4    -0.126545280458E+03   -0.30682E+01   -0.30560E+01 13152   0.110E+01
DAV:   5    -0.126621186478E+03   -0.75906E-01   -0.75885E-01 13432   0.190E+00
DAV:   6    -0.126623635585E+03   -0.24491E-02   -0.24490E-02 13512   0.295E-01
DAV:   7    -0.126623755829E+03   -0.12024E-03   -0.12024E-03 13736   0.653E-02
DAV:   8    -0.126623761967E+03   -0.61377E-05   -0.61378E-05 13520   0.130E-02
DAV:   9    -0.126623762352E+03   -0.38534E-06   -0.38532E-06 10344   0.311E-03
DAV:  10    -0.126623762375E+03   -0.22803E-07   -0.22741E-07  7872   0.903E-04
DAV:  11    -0.126623762380E+03   -0.48021E-08   -0.49202E-08  6656   0.498E-04
DAV:  12    -0.126623762382E+03   -0.23720E-08   -0.22553E-08  6328   0.340E-04    0.393E+01
DAV:  13    -0.123317883612E+03    0.33059E+01   -0.35409E+00 13440   0.140E+01    0.314E+01
DAV:  14    -0.120834896771E+03    0.24830E+01   -0.22851E+00 13744   0.446E+00    0.231E+01
DAV:  15    -0.119980618202E+03    0.85428E+00   -0.11638E+01 12328   0.114E+01    0.603E+00
DAV:  16    -0.119681833601E+03    0.29878E+00   -0.82652E-01 12848   0.262E+00    0.547E+00
DAV:  17    -0.119606578305E+03    0.75255E-01   -0.16345E-01 15196   0.253E+00    0.375E+00
DAV:  18    -0.119526916843E+03    0.79661E-01   -0.14443E-01 13312   0.303E+00    0.243E+00
DAV:  19    -0.119441786383E+03    0.85130E-01   -0.14264E-01 13600   0.198E+00    0.198E+00
DAV:  20    -0.119443300495E+03   -0.15141E-02   -0.43781E-02 11364   0.694E-01    0.151E+00
DAV:  21    -0.119428336723E+03    0.14964E-01   -0.10065E-02 13644   0.311E-01    0.152E+00
DAV:  22    -0.119422566641E+03    0.57701E-02   -0.15365E-02 13904   0.754E-01    0.124E+00
DAV:  23    -0.119421487451E+03    0.10792E-02   -0.79088E-03 13664   0.578E-01    0.109E+00
DAV:  24    -0.119422765916E+03   -0.12785E-02   -0.32109E-03 13620   0.275E-01    0.100E+00
DAV:  25    -0.119422576453E+03    0.18946E-03   -0.11053E-03 14184   0.227E-01    0.930E-01
DAV:  26    -0.119420717214E+03    0.18592E-02   -0.17626E-03 12352   0.224E-01    0.754E-01
DAV:  27    -0.119420205593E+03    0.51162E-03   -0.70970E-04 12176   0.107E-01    0.667E-01
DAV:  28    -0.119420176599E+03    0.28995E-04   -0.84363E-05 12340   0.240E-02    0.591E-01
DAV:  29    -0.119419887418E+03    0.28918E-03   -0.18381E-04 11972   0.510E-02    0.434E-01
DAV:  30    -0.119419767489E+03    0.11993E-03   -0.75753E-05 12452   0.289E-02    0.342E-01
DAV:  31    -0.119419734500E+03    0.32989E-04   -0.12959E-05 12280   0.130E-02    0.301E-01
DAV:  32    -0.119419673131E+03    0.61369E-04   -0.18606E-05 12528   0.176E-02    0.277E-01
DAV:  33    -0.119419558495E+03    0.11464E-03   -0.12549E-04 12484   0.418E-02    0.174E-01
DAV:  34    -0.119419539685E+03    0.18810E-04   -0.40583E-05 12180   0.192E-02    0.892E-02
DAV:  35    -0.119419541138E+03   -0.14529E-05   -0.24498E-06  9416   0.430E-03    0.922E-02
DAV:  36    -0.119419538834E+03    0.23038E-05   -0.44834E-07  7876   0.266E-03    0.931E-02
DAV:  37    -0.119419532267E+03    0.65672E-05   -0.29640E-06 10232   0.630E-03    0.805E-02
DAV:  38    -0.119419523926E+03    0.83411E-05   -0.11928E-05 11732   0.131E-02    0.542E-02
DAV:  39    -0.119419521839E+03    0.20870E-05   -0.65388E-06 10960   0.799E-03    0.293E-02
DAV:  40    -0.119419521755E+03    0.84196E-07   -0.52221E-07  7736   0.199E-03
   1 F= -.11941952E+03 E0= -.11941946E+03  d E =-.125162E-03
