 vasp.6.4.2 20Jul23 (build Nov 14 2023 12:59:38) complex                        
  
 executed on             LinuxIFC date 2024.06.24  09:24:29
 running   16 mpi-ranks, on    1 nodes
 distrk:  each k-point on   16 cores,    1 groups
 distr:  one band on NCORE=   4 cores,    4 groups


--------------------------------------------------------------------------------------------------------


 INCAR:
   ENCUT = 303.223
   ALGO = Normal
   NELM = 200
   NELMIN = 6
   NELMDL = -12
   EDIFF = 1.0E-6
   AMIX = 0.1
   BMIX = 0.0001
   NBANDS = 140
   PREC = Accurate
   IVDW = 0
   ISPIN = 1
   ADDGRID = .TRUE.
   LASPH = .TRUE.
   LREAL = Auto
   NSW = 0
   EDIFFG = -0.010
   IBRION = 2
   ISIF = 3
   POTIM = 0.5
   STRESSTYPE = 2
   ISMEAR = 0
   SIGMA = 0.03
   LORBIT = 10
   NEDOS = 6001
   NWRITE = 1
   LWAVE = .FALSE.
   LCHARG = .FALSE.
   NCORE = 4
   LPLANE = .TRUE.

 POTCAR:    PAW_PBE Ta 17Jan2003                  
 POTCAR:    PAW_PBE Ni 02Aug2007                  
 POTCAR:    PAW_PBE Te 08Apr2002                  
 POTCAR:    PAW_PBE Ta 17Jan2003                  
  local pseudopotential read in
  partial core-charges read in
  partial kinetic energy density read in
  atomic valenz-charges read in
  non local Contribution for L=           2  read in
    real space projection operators read in
  non local Contribution for L=           2  read in
    real space projection operators read in
  non local Contribution for L=           0  read in
    real space projection operators read in
  non local Contribution for L=           0  read in
    real space projection operators read in
  non local Contribution for L=           1  read in
    real space projection operators read in
  non local Contribution for L=           1  read in
    real space projection operators read in
    PAW grid and wavefunctions read in
 
   number of l-projection  operators is LMAX  =           6
   number of lm-projection operators is LMMAX =          18
 
 POTCAR:    PAW_PBE Ni 02Aug2007                  
  local pseudopotential read in
  partial core-charges read in
  partial kinetic energy density read in
  atomic valenz-charges read in
  non local Contribution for L=           2  read in
    real space projection operators read in
  non local Contribution for L=           2  read in
    real space projection operators read in
  non local Contribution for L=           0  read in
    real space projection operators read in
  non local Contribution for L=           0  read in
    real space projection operators read in
  non local Contribution for L=           1  read in
    real space projection operators read in
  non local Contribution for L=           1  read in
    real space projection operators read in
    PAW grid and wavefunctions read in
 
   number of l-projection  operators is LMAX  =           6
   number of lm-projection operators is LMMAX =          18
 
 POTCAR:    PAW_PBE Te 08Apr2002                  
  local pseudopotential read in
  partial core-charges read in
  partial kinetic energy density read in
  atomic valenz-charges read in
  non local Contribution for L=           0  read in
    real space projection operators read in
  non local Contribution for L=           0  read in
    real space projection operators read in
  non local Contribution for L=           1  read in
    real space projection operators read in
  non local Contribution for L=           1  read in
    real space projection operators read in
  non local Contribution for L=           2  read in
    real space projection operators read in
    PAW grid and wavefunctions read in
 
   number of l-projection  operators is LMAX  =           5
   number of lm-projection operators is LMMAX =          13
 
 Optimization of the real space projectors (new method)

 maximal supplied QI-value         = 12.85
 optimisation between [QCUT,QGAM] = [  8.87, 17.73] = [ 22.01, 88.06] Ry 
 Optimized for a Real-space Cutoff    1.95 Angstroem

   l    n(q)    QCUT    max X(q) W(low)/X(q) W(high)/X(q)  e(spline) 
   2      9     8.867    62.315    0.12E-03    0.33E-04    0.12E-05
   2      9     8.867    52.185    0.13E-03    0.33E-04    0.12E-05
   0     10     8.867   103.837    0.13E-04    0.28E-04    0.12E-06
   0     10     8.867    59.728    0.12E-04    0.25E-04    0.11E-06
   1     10     8.867    13.958    0.44E-04    0.17E-05    0.15E-06
   1     10     8.867     8.441    0.31E-04    0.26E-05    0.11E-06
 Optimization of the real space projectors (new method)

 maximal supplied QI-value         = 16.25
 optimisation between [QCUT,QGAM] = [  8.78, 17.71] = [ 21.57, 87.87] Ry 
 Optimized for a Real-space Cutoff    1.54 Angstroem

   l    n(q)    QCUT    max X(q) W(low)/X(q) W(high)/X(q)  e(spline) 
   2      7     8.776    60.317    0.16E-03    0.44E-03    0.23E-06
   2      7     8.776    55.921    0.17E-03    0.44E-03    0.23E-06
   0      8     8.776    51.690    0.22E-03    0.25E-03    0.51E-07
   0      8     8.776    30.015    0.20E-03    0.23E-03    0.47E-07
   1      8     8.776    18.849    0.17E-03    0.19E-03    0.10E-06
   1      8     8.776    14.624    0.15E-03    0.15E-03    0.88E-07
 Optimization of the real space projectors (new method)

 maximal supplied QI-value         = 16.25
 optimisation between [QCUT,QGAM] = [  8.78, 17.71] = [ 21.57, 87.87] Ry 
 Optimized for a Real-space Cutoff    1.49 Angstroem

   l    n(q)    QCUT    max X(q) W(low)/X(q) W(high)/X(q)  e(spline) 
   0      8     8.776   224.858    0.15E-03    0.19E-04    0.75E-07
   0      8     8.776   205.313    0.15E-03    0.20E-04    0.76E-07
   1      7     8.776   119.695    0.23E-03    0.47E-03    0.95E-07
   1      7     8.776    84.282    0.23E-03    0.46E-03    0.93E-07
   2      7     8.776     5.599    0.87E-04    0.38E-04    0.37E-07
  PAW_PBE Ta 17Jan2003                  :
 energy of atom  1       EATOM= -130.6506
 kinetic energy error for atom=    0.0116 (will be added to EATOM!!)
  PAW_PBE Ni 02Aug2007                  :
 energy of atom  2       EATOM=-1077.6739
 kinetic energy error for atom=    0.0306 (will be added to EATOM!!)
  PAW_PBE Te 08Apr2002                  :
 energy of atom  3       EATOM= -223.2721
 kinetic energy error for atom=    0.0026 (will be added to EATOM!!)
 
 
 POSCAR: Ta8 Ni12 Te20
  positions in direct lattice
  velocities in cartesian coordinates
 exchange correlation table for  LEXCH =        8
   RHO(1)=    0.500       N(1)  =     2000
   RHO(2)=  100.500       N(2)  =     4000
 


--------------------------------------------------------------------------------------------------------


 ion  position               nearest neighbor table
   1  0.872  0.250  0.497-   5 2.63   8 2.70   8 2.70  19 2.76  18 2.80  18 2.80  11 2.89  11 2.89
                            10 2.96  10 2.96
   2  0.372  0.750  0.503-   6 2.63   7 2.70   7 2.70  20 2.76  17 2.80  17 2.80  12 2.89  12 2.89
                             9 2.96   9 2.96
   3  0.129  0.250  0.497-   7 2.63   6 2.70   6 2.70  19 2.76  14 2.80  14 2.80  15 2.89  15 2.89
                            10 2.96  10 2.96
   4  0.629  0.750  0.503-   8 2.63   5 2.70   5 2.70  20 2.76  13 2.80  13 2.80  16 2.89  16 2.89
                             9 2.96   9 2.96
   5  0.729  0.250  0.470-   8 2.50   8 2.50  11 2.58  11 2.58  13 2.59   1 2.63   4 2.70   4 2.70
                            16 2.74
   6  0.229  0.750  0.530-   7 2.50   7 2.50  12 2.58  12 2.58  14 2.59   2 2.63   3 2.70   3 2.70
                            15 2.74
   7  0.272  0.250  0.470-   6 2.50   6 2.50  15 2.58  15 2.58  17 2.59   3 2.63   2 2.70   2 2.70
                            12 2.74
   8  0.772  0.750  0.530-   5 2.50   5 2.50  16 2.58  16 2.58  18 2.59   4 2.63   1 2.70   1 2.70
                            11 2.74
   9  0.500  0.250  0.494-  17 2.54  13 2.54  20 2.56  20 2.56   2 2.96   2 2.96   4 2.96   4 2.96

  10  0.000  0.750  0.506-  18 2.54  14 2.54  19 2.56  19 2.56   1 2.96   1 2.96   3 2.96   3 2.96

  11  0.804  0.750  0.423-   5 2.58   5 2.58   8 2.74   1 2.89   1 2.89
  12  0.304  0.250  0.577-   6 2.58   6 2.58   7 2.74   2 2.89   2 2.89
  13  0.601  0.250  0.422-   9 2.54   5 2.59   4 2.80   4 2.80  17 3.57
  14  0.101  0.750  0.578-  10 2.54   6 2.59   3 2.80   3 2.80  18 3.57
  15  0.197  0.750  0.423-   7 2.58   7 2.58   6 2.74   3 2.89   3 2.89
  16  0.697  0.250  0.577-   8 2.58   8 2.58   5 2.74   4 2.89   4 2.89
  17  0.400  0.250  0.422-   9 2.54   7 2.59   2 2.80   2 2.80  13 3.57
  18  0.900  0.750  0.578-  10 2.54   8 2.59   1 2.80   1 2.80  14 3.57
  19  0.000  0.250  0.435-  10 2.56  10 2.56   1 2.76   3 2.76
  20  0.500  0.750  0.565-   9 2.56   9 2.56   2 2.76   4 2.76
 
  LATTYP: Found a simple orthorhombic cell.
 ALAT       =     3.7173663731
 B/A-ratio  =     4.7893243875
 C/A-ratio  =     6.7347578740
  
  Lattice vectors:
  
 A1 = (   0.0000000000,  -3.7173663731,   0.0000000000)
 A2 = (  17.8036734280,   0.0000000000,   0.0000000000)
 A3 = (   0.0000000000,   0.0000000000,  25.0355624519)


Analysis of symmetry for initial positions (statically):
=====================================================================
 Subroutine PRICEL returns:
 Original cell was already a primitive cell.
 

 Routine SETGRP: Setting up the symmetry group for a 
 simple orthorhombic supercell.


 Subroutine GETGRP returns: Found  2 space group operations
 (whereof  1 operations were pure point group operations)
 out of a pool of  8 trial point group operations.


The static configuration has the point symmetry C_1 .
 The point group associated with its full space group is C_1h.


Analysis of symmetry for dynamics (positions and initial velocities):
=====================================================================
 Subroutine PRICEL returns:
 Original cell was already a primitive cell.
 

 Routine SETGRP: Setting up the symmetry group for a 
 simple orthorhombic supercell.


 Subroutine GETGRP returns: Found  2 space group operations
 (whereof  1 operations were pure point group operations)
 out of a pool of  8 trial point group operations.


The dynamic configuration has the point symmetry C_1 .
 The point group associated with its full space group is C_1h.


 Subroutine INISYM returns: Found  2 space group operations
 (whereof  1 operations are pure point group operations),
 and found     1 'primitive' translations


----------------------------------------------------------------------------------------

                                     Primitive cell                                     

  volume of cell :    1656.9230

  direct lattice vectors                    reciprocal lattice vectors
    17.803673428  0.000000000  0.000000000     0.056168184  0.000000000  0.000000000
     0.000000000  3.717366373  0.000000000     0.000000000  0.269007652 -0.000000000
     0.000000000  0.000000000 25.035562452     0.000000000  0.000000000  0.039943181

  length of vectors
    17.803673428  3.717366373 25.035562452     0.056168184  0.269007652  0.039943181

  position of ions in fractional coordinates (direct lattice)
     0.871673196  0.249999970  0.496965903
     0.371656673  0.749999881  0.503047488
     0.129144954  0.249999970  0.496950766
     0.629189849  0.749999881  0.503056190
     0.728969198  0.249999970  0.470428878
     0.228940622  0.749999881  0.529607779
     0.271823733  0.249999970  0.470414353
     0.771838868  0.749999881  0.529614355
     0.500292249  0.249999970  0.494117339
     0.000316075  0.749999881  0.505863449
     0.803873609  0.749999881  0.422630908
     0.303845329  0.249999970  0.577394114
     0.600616500  0.249999970  0.421900216
     0.100570225  0.749999881  0.578112336
     0.196977383  0.749999881  0.422614921
     0.696977929  0.249999970  0.577406064
     0.400112091  0.249999970  0.421842527
     0.900135743  0.749999881  0.578159661
     0.000401553  0.249999970  0.435303419
     0.500401798  0.749999881  0.564661933

  ion indices of the primitive-cell ions
   primitive index   ion index
                 1           1
                 2           2
                 3           3
                 4           4
                 5           5
                 6           6
                 7           7
                 8           8
                 9           9
                10          10
                11          11
                12          12
                13          13
                14          14
                15          15
                16          16
                17          17
                18          18
                19          19
                20          20

----------------------------------------------------------------------------------------

 
 
 KPOINTS: Gamma centered                          

Automatic generation of k-mesh.
 Grid dimensions read from file:
 generate k-points for:    4   22    1

 Generating k-lattice:

  Cartesian coordinates                     Fractional coordinates (reciprocal lattice)
     0.014042046  0.000000000  0.000000000     0.250000000  0.000000000  0.000000000
     0.000000000  0.012227621 -0.000000000     0.000000000  0.045454545  0.000000000
     0.000000000  0.000000000  0.039943181     0.000000000  0.000000000  1.000000000

  Length of vectors
     0.014042046  0.012227621  0.039943181

  Shift w.r.t. Gamma in fractional coordinates (k-lattice)
     0.000000000  0.000000000  0.000000000

 
 Subroutine IBZKPT returns following result:
 ===========================================
 
 Found     36 irreducible k-points:
 
 Following reciprocal coordinates:
            Coordinates               Weight
  0.000000  0.000000  0.000000      1.000000
  0.250000  0.000000  0.000000      2.000000
  0.500000  0.000000  0.000000      1.000000
  0.000000  0.045455 -0.000000      2.000000
  0.250000  0.045455 -0.000000      4.000000
  0.500000  0.045455 -0.000000      2.000000
  0.000000  0.090909 -0.000000      2.000000
  0.250000  0.090909 -0.000000      4.000000
  0.500000  0.090909 -0.000000      2.000000
  0.000000  0.136364 -0.000000      2.000000
  0.250000  0.136364 -0.000000      4.000000
  0.500000  0.136364 -0.000000      2.000000
  0.000000  0.181818  0.000000      2.000000
  0.250000  0.181818  0.000000      4.000000
  0.500000  0.181818  0.000000      2.000000
  0.000000  0.227273 -0.000000      2.000000
  0.250000  0.227273 -0.000000      4.000000
  0.500000  0.227273 -0.000000      2.000000
  0.000000  0.272727  0.000000      2.000000
  0.250000  0.272727  0.000000      4.000000
  0.500000  0.272727  0.000000      2.000000
  0.000000  0.318182 -0.000000      2.000000
  0.250000  0.318182 -0.000000      4.000000
  0.500000  0.318182 -0.000000      2.000000
  0.000000  0.363636 -0.000000      2.000000
  0.250000  0.363636 -0.000000      4.000000
  0.500000  0.363636 -0.000000      2.000000
  0.000000  0.409091 -0.000000      2.000000
  0.250000  0.409091 -0.000000      4.000000
  0.500000  0.409091 -0.000000      2.000000
  0.000000  0.454545 -0.000000      2.000000
  0.250000  0.454545 -0.000000      4.000000
  0.500000  0.454545 -0.000000      2.000000
  0.000000  0.500000  0.000000      1.000000
  0.250000  0.500000  0.000000      2.000000
  0.500000  0.500000  0.000000      1.000000
 
 Following cartesian coordinates:
            Coordinates               Weight
  0.000000  0.000000  0.000000      1.000000
  0.014042  0.000000  0.000000      2.000000
  0.028084  0.000000  0.000000      1.000000
  0.000000  0.012228 -0.000000      2.000000
  0.014042  0.012228 -0.000000      4.000000
  0.028084  0.012228 -0.000000      2.000000
  0.000000  0.024455 -0.000000      2.000000
  0.014042  0.024455 -0.000000      4.000000
  0.028084  0.024455 -0.000000      2.000000
  0.000000  0.036683 -0.000000      2.000000
  0.014042  0.036683 -0.000000      4.000000
  0.028084  0.036683 -0.000000      2.000000
  0.000000  0.048910 -0.000000      2.000000
  0.014042  0.048910 -0.000000      4.000000
  0.028084  0.048910 -0.000000      2.000000
  0.000000  0.061138 -0.000000      2.000000
  0.014042  0.061138 -0.000000      4.000000
  0.028084  0.061138 -0.000000      2.000000
  0.000000  0.073366 -0.000000      2.000000
  0.014042  0.073366 -0.000000      4.000000
  0.028084  0.073366 -0.000000      2.000000
  0.000000  0.085593 -0.000000      2.000000
  0.014042  0.085593 -0.000000      4.000000
  0.028084  0.085593 -0.000000      2.000000
  0.000000  0.097821 -0.000000      2.000000
  0.014042  0.097821 -0.000000      4.000000
  0.028084  0.097821 -0.000000      2.000000
  0.000000  0.110049 -0.000000      2.000000
  0.014042  0.110049 -0.000000      4.000000
  0.028084  0.110049 -0.000000      2.000000
  0.000000  0.122276 -0.000000      2.000000
  0.014042  0.122276 -0.000000      4.000000
  0.028084  0.122276 -0.000000      2.000000
  0.000000  0.134504 -0.000000      1.000000
  0.014042  0.134504 -0.000000      2.000000
  0.028084  0.134504 -0.000000      1.000000
 


--------------------------------------------------------------------------------------------------------




 Dimension of arrays:
   k-points           NKPTS =     36   k-points in BZ     NKDIM =     36   number of bands    NBANDS=    140
   number of dos      NEDOS =   6001   number of ions     NIONS =     20
   non local maximal  LDIM  =      6   non local SUM 2l+1 LMDIM =     18
   total plane-waves  NPLWV = 373248
   max r-space proj   IRMAX =   7047   max aug-charges    IRDMAX= 122858
   dimension x,y,z NGX =   108 NGY =   24 NGZ =  144
   dimension x,y,z NGXF=   216 NGYF=   48 NGZF=  288
   support grid    NGXF=   432 NGYF=   96 NGZF=  576
   ions per type =               4   6  10
   NGX,Y,Z   is equivalent  to a cutoff of  10.08, 10.73,  9.56 a.u.
   NGXF,Y,Z  is equivalent  to a cutoff of  20.17, 21.47, 19.12 a.u.

 SYSTEM =  unknown system                          
 POSCAR =  Ta8 Ni12 Te20                           

 Startparameter for this run:
   NWRITE =      1    write-flag & timer
   PREC   = accura    normal or accurate (medium, high low for compatibility)
   ISTART =      0    job   : 0-new  1-cont  2-samecut
   ICHARG =      2    charge: 1-file 2-atom 10-const
   ISPIN  =      1    spin polarized calculation?
   LNONCOLLINEAR =      F non collinear calculations
   LSORBIT =      F    spin-orbit coupling
   INIWAV =      1    electr: 0-lowe 1-rand  2-diag
   LASPH  =      T    aspherical Exc in radial PAW
 Electronic Relaxation 1
   ENCUT  =  303.2 eV  22.29 Ry    4.72 a.u.  25.28  5.28 35.55*2*pi/ulx,y,z
   ENINI  =  303.2     initial cutoff
   ENAUG  =  544.6 eV  augmentation charge cutoff
   NELM   =    200;   NELMIN=  6; NELMDL=-12     # of ELM steps 
   EDIFF  = 0.1E-05   stopping-criterion for ELM
   LREAL  =      T    real-space projection
   NLSPLINE    = F    spline interpolate recip. space projectors
   LCOMPAT=      F    compatible to vasp.4.4
   GGA_COMPAT  = T    GGA compatible to vasp.4.4-vasp.4.6
   LMAXPAW     = -100 max onsite density
   LMAXMIX     =    2 max onsite mixed and CHGCAR
   VOSKOWN=      0    Vosko Wilk Nusair interpolation
   ROPT   =   -0.00025  -0.00025  -0.00025
 Ionic relaxation
   EDIFFG = -.1E-01   stopping-criterion for IOM
   NSW    =      0    number of steps for IOM
   NBLOCK =      1;   KBLOCK =      1    inner block; outer block 
   IBRION =     -1    ionic relax: 0-MD 1-quasi-New 2-CG
   NFREE  =      1    steps in history (QN), initial steepest desc. (CG)
   ISIF   =      3    stress and relaxation
   IWAVPR =     10    prediction:  0-non 1-charg 2-wave 3-comb
   ISYM   =      2    0-nonsym 1-usesym 2-fastsym
   LCORR  =      T    Harris-Foulkes like correction to forces

   POTIM  = 0.5000    time-step for ionic-motion
   TEIN   =    0.0    initial temperature
   TEBEG  =    0.0;   TEEND  =   0.0 temperature during run
   SMASS  =  -3.00    Nose mass-parameter (am)
   estimated Nose-frequenzy (Omega)   =  0.10E-29 period in steps = 0.13E+47 mass=  -0.724E-26a.u.
   SCALEE = 1.0000    scale energy and forces
   NPACO  =    256;   APACO  = 10.0  distance and # of slots for P.C.
   PSTRESS=    0.0 pullay stress

  Mass of Ions in am
   POMASS = 180.95 58.69127.60
  Ionic Valenz
   ZVAL   =   5.00 10.00  6.00
  Atomic Wigner-Seitz radii
   RWIGS  =  -1.00 -1.00 -1.00
  virtual crystal weights 
   VCA    =   1.00  1.00  1.00
   NELECT =     140.0000    total number of electrons
   NUPDOWN=      -1.0000    fix difference up-down

 DOS related values:
   EMIN   =  10.00;   EMAX   =-10.00  energy-range for DOS
   EFERMI =   0.00;   METHOD = LEGACY      
   ISMEAR =     0;   SIGMA  =   0.03  broadening in eV -4-tet -1-fermi 0-gaus

 Electronic relaxation 2 (details)
   IALGO  =     38    algorithm
   LDIAG  =      T    sub-space diagonalisation (order eigenvalues)
   LSUBROT=      F    optimize rotation matrix (better conditioning)
   TURBO    =      0    0=normal 1=particle mesh
   IRESTART =      0    0=no restart 2=restart with 2 vectors
   NREBOOT  =      0    no. of reboots
   NMIN     =      0    reboot dimension
   EREF     =   0.00    reference energy to select bands
   IMIX   =      4    mixing-type and parameters
     AMIX     =   0.10;   BMIX     =  0.00
     AMIX_MAG =   0.40;   BMIX_MAG =  0.00
     AMIN     =   0.10
     WC   =   100.;   INIMIX=   1;  MIXPRE=   1;  MAXMIX= -45

 Intra band minimization:
   WEIMIN = 0.0000     energy-eigenvalue tresh-hold
   EBREAK =  0.18E-08  absolut break condition
   DEPER  =   0.30     relativ break condition  

   TIME   =   0.40     timestep for ELM

  volume/ion in A,a.u.               =      82.85       559.07
  Fermi-wavevector in a.u.,A,eV,Ry     =   0.718373  1.357528  7.021421  0.516060
  Thomas-Fermi vector in A             =   1.807294
 
 Write flags
   LWAVE        =      F    write WAVECAR
   LDOWNSAMPLE  =      F    k-point downsampling of WAVECAR
   LCHARG       =      F    write CHGCAR
   LVTOT        =      F    write LOCPOT, total local potential
   LVHAR        =      F    write LOCPOT, Hartree potential only
   LELF         =      F    write electronic localiz. function (ELF)
   LORBIT       =     10    0 simple, 1 ext, 2 COOP (PROOUT), +10 PAW based schemes


 Dipole corrections
   LMONO  =      F    monopole corrections only (constant potential shift)
   LDIPOL =      F    correct potential (dipole corrections)
   IDIPOL =      0    1-x, 2-y, 3-z, 4-all directions 
   EPSILON=  1.0000000 bulk dielectric constant

 Exchange correlation treatment:
   GGA     =    --    GGA type
   LEXCH   =     8    internal setting for exchange type
   LIBXC   =     F    Libxc                    
   VOSKOWN =     0    Vosko Wilk Nusair interpolation
   LHFCALC =     F    Hartree Fock is set to
   LHFONE  =     F    Hartree Fock one center treatment
   AEXX    =    0.0000 exact exchange contribution

 Linear response parameters
   LEPSILON=     F    determine dielectric tensor
   LRPA    =     F    only Hartree local field effects (RPA)
   LNABLA  =     F    use nabla operator in PAW spheres
   LVEL    =     F    velocity operator in full k-point grid
   CSHIFT  =0.1000    complex shift for real part using Kramers Kronig
   OMEGAMAX=  -1.0    maximum frequency
   DEG_THRESHOLD= 0.2000000E-02 threshold for treating states as degnerate
   RTIME   =   -0.100 relaxation time in fs
  (WPLASMAI=    0.000 imaginary part of plasma frequency in eV, 0.658/RTIME)
   DFIELD  = 0.0000000 0.0000000 0.0000000 field for delta impulse in time
 
  Optional k-point grid parameters
   LKPOINTS_OPT  =     F    use optional k-point grid
   KPOINTS_OPT_MODE=     1    mode for optional k-point grid
 
 Orbital magnetization related:
   ORBITALMAG=     F  switch on orbital magnetization
   LCHIMAG   =     F  perturbation theory with respect to B field
   DQ        =  0.001000  dq finite difference perturbation B field
   LLRAUG    =     F  two centre corrections for induced B field
   LBONE     =     F  B-component reconstruction in AE one-centre
   LVGVCALC  =     T  calculate vGv susceptibility
   LVGVAPPL  =     F  apply vGv susceptibility instead of pGv for G=0

 Random number generation:
   RANDOM_GENERATOR = DEFAULT
   PCG_SEED         = not used


--------------------------------------------------------------------------------------------------------


 Static calculation
 charge density and potential will be updated during run
 non-spin polarized calculation
 Variant of blocked Davidson
 Davidson routine will perform the subspace rotation
 perform sub-space diagonalisation
    after iterative eigenvector-optimisation
 modified Broyden-mixing scheme, WC =      100.0
 initial mixing is a Kerker type mixing with AMIX =  0.1000 and BMIX =      0.0001
 Hartree-type preconditioning will be used
 using additional bands           70
 real space projection scheme for non local part
 use partial core corrections
 calculate Harris-corrections to forces 
   (improved forces if not selfconsistent)
 use gradient corrections 
 use of overlap-Matrix (Vanderbilt PP)
 Gauss-broadening in eV      SIGMA  =   0.03


--------------------------------------------------------------------------------------------------------


  energy-cutoff  :      303.22
  volume of cell :     1656.92
      direct lattice vectors                 reciprocal lattice vectors
    17.803673428  0.000000000  0.000000000     0.056168184  0.000000000  0.000000000
     0.000000000  3.717366373  0.000000000     0.000000000  0.269007652 -0.000000000
     0.000000000  0.000000000 25.035562452     0.000000000  0.000000000  0.039943181

  length of vectors
    17.803673428  3.717366373 25.035562452     0.056168184  0.269007652  0.039943181


 
 k-points in units of 2pi/SCALE and weight: Gamma centered                          
   0.00000000  0.00000000  0.00000000       0.011
   0.01404205  0.00000000  0.00000000       0.023
   0.02808409  0.00000000  0.00000000       0.011
   0.00000000  0.01222762 -0.00000000       0.023
   0.01404205  0.01222762 -0.00000000       0.045
   0.02808409  0.01222762 -0.00000000       0.023
   0.00000000  0.02445524 -0.00000000       0.023
   0.01404205  0.02445524 -0.00000000       0.045
   0.02808409  0.02445524 -0.00000000       0.023
   0.00000000  0.03668286 -0.00000000       0.023
   0.01404205  0.03668286 -0.00000000       0.045
   0.02808409  0.03668286 -0.00000000       0.023
   0.00000000  0.04891048 -0.00000000       0.023
   0.01404205  0.04891048 -0.00000000       0.045
   0.02808409  0.04891048 -0.00000000       0.023
   0.00000000  0.06113810 -0.00000000       0.023
   0.01404205  0.06113810 -0.00000000       0.045
   0.02808409  0.06113810 -0.00000000       0.023
   0.00000000  0.07336572 -0.00000000       0.023
   0.01404205  0.07336572 -0.00000000       0.045
   0.02808409  0.07336572 -0.00000000       0.023
   0.00000000  0.08559334 -0.00000000       0.023
   0.01404205  0.08559334 -0.00000000       0.045
   0.02808409  0.08559334 -0.00000000       0.023
   0.00000000  0.09782096 -0.00000000       0.023
   0.01404205  0.09782096 -0.00000000       0.045
   0.02808409  0.09782096 -0.00000000       0.023
   0.00000000  0.11004858 -0.00000000       0.023
   0.01404205  0.11004858 -0.00000000       0.045
   0.02808409  0.11004858 -0.00000000       0.023
   0.00000000  0.12227621 -0.00000000       0.023
   0.01404205  0.12227621 -0.00000000       0.045
   0.02808409  0.12227621 -0.00000000       0.023
   0.00000000  0.13450383 -0.00000000       0.011
   0.01404205  0.13450383 -0.00000000       0.023
   0.02808409  0.13450383 -0.00000000       0.011
 
 k-points in reciprocal lattice and weights: Gamma centered                          
   0.00000000  0.00000000  0.00000000       0.011
   0.25000000  0.00000000  0.00000000       0.023
   0.50000000  0.00000000  0.00000000       0.011
   0.00000000  0.04545455 -0.00000000       0.023
   0.25000000  0.04545455 -0.00000000       0.045
   0.50000000  0.04545455 -0.00000000       0.023
   0.00000000  0.09090909 -0.00000000       0.023
   0.25000000  0.09090909 -0.00000000       0.045
   0.50000000  0.09090909 -0.00000000       0.023
   0.00000000  0.13636364 -0.00000000       0.023
   0.25000000  0.13636364 -0.00000000       0.045
   0.50000000  0.13636364 -0.00000000       0.023
   0.00000000  0.18181818  0.00000000       0.023
   0.25000000  0.18181818  0.00000000       0.045
   0.50000000  0.18181818  0.00000000       0.023
   0.00000000  0.22727273 -0.00000000       0.023
   0.25000000  0.22727273 -0.00000000       0.045
   0.50000000  0.22727273 -0.00000000       0.023
   0.00000000  0.27272727  0.00000000       0.023
   0.25000000  0.27272727  0.00000000       0.045
   0.50000000  0.27272727  0.00000000       0.023
   0.00000000  0.31818182 -0.00000000       0.023
   0.25000000  0.31818182 -0.00000000       0.045
   0.50000000  0.31818182 -0.00000000       0.023
   0.00000000  0.36363636 -0.00000000       0.023
   0.25000000  0.36363636 -0.00000000       0.045
   0.50000000  0.36363636 -0.00000000       0.023
   0.00000000  0.40909091 -0.00000000       0.023
   0.25000000  0.40909091 -0.00000000       0.045
   0.50000000  0.40909091 -0.00000000       0.023
   0.00000000  0.45454545 -0.00000000       0.023
   0.25000000  0.45454545 -0.00000000       0.045
   0.50000000  0.45454545 -0.00000000       0.023
   0.00000000  0.50000000  0.00000000       0.011
   0.25000000  0.50000000  0.00000000       0.023
   0.50000000  0.50000000  0.00000000       0.011
 
 position of ions in fractional coordinates (direct lattice) 
   0.87167320  0.24999997  0.49696590
   0.37165667  0.74999988  0.50304749
   0.12914495  0.24999997  0.49695077
   0.62918985  0.74999988  0.50305619
   0.72896920  0.24999997  0.47042888
   0.22894062  0.74999988  0.52960778
   0.27182373  0.24999997  0.47041435
   0.77183887  0.74999988  0.52961436
   0.50029225  0.24999997  0.49411734
   0.00031608  0.74999988  0.50586345
   0.80387361  0.74999988  0.42263091
   0.30384533  0.24999997  0.57739411
   0.60061650  0.24999997  0.42190022
   0.10057022  0.74999988  0.57811234
   0.19697738  0.74999988  0.42261492
   0.69697793  0.24999997  0.57740606
   0.40011209  0.24999997  0.42184253
   0.90013574  0.74999988  0.57815966
   0.00040155  0.24999997  0.43530342
   0.50040180  0.74999988  0.56466193
 
 position of ions in cartesian coordinates  (Angst):
  15.51898491  0.92934148 12.44182090
   6.61685404  2.78802434 12.59407680
   2.29925459  0.92934148 12.44144193
  11.20189060  2.78802434 12.59429466
  12.97832955  0.92934148 11.77745156
   4.07598407  2.78802434 13.25902862
   4.83946098  0.92934148 11.77708792
  13.74156715  2.78802434 13.25919327
   8.90703983  0.92934148 12.37050549
   0.00562730  2.78802434 12.66457597
  14.31190320  2.78802434 10.58080250
   5.40956301  0.92934148 14.45538639
  10.69318002  0.92934148 10.56250921
   1.79051943  2.78802434 14.47336749
   3.50692100  2.78802434 10.58040226
  12.40876744  0.92934148 14.45568557
   7.12346501  0.92934148 10.56106494
  16.02572282  2.78802434 14.47455230
   0.00714912  0.92934148 10.89806592
   8.90899020  2.78802434 14.13662908
 


--------------------------------------------------------------------------------------------------------


 k-point   1 :   0.0000 0.0000 0.0000  plane waves:   19903
 k-point   2 :   0.2500 0.0000 0.0000  plane waves:   19923
 k-point   3 :   0.5000 0.0000 0.0000  plane waves:   19886
 k-point   4 :   0.0000 0.0455-0.0000  plane waves:   19881
 k-point   5 :   0.2500 0.0455-0.0000  plane waves:   19903
 k-point   6 :   0.5000 0.0455-0.0000  plane waves:   19900
 k-point   7 :   0.0000 0.0909-0.0000  plane waves:   19885
 k-point   8 :   0.2500 0.0909-0.0000  plane waves:   19886
 k-point   9 :   0.5000 0.0909-0.0000  plane waves:   19888
 k-point  10 :   0.0000 0.1364-0.0000  plane waves:   19885
 k-point  11 :   0.2500 0.1364-0.0000  plane waves:   19887
 k-point  12 :   0.5000 0.1364-0.0000  plane waves:   19900
 k-point  13 :   0.0000 0.1818 0.0000  plane waves:   19875
 k-point  14 :   0.2500 0.1818 0.0000  plane waves:   19873
 k-point  15 :   0.5000 0.1818 0.0000  plane waves:   19892
 k-point  16 :   0.0000 0.2273-0.0000  plane waves:   19855
 k-point  17 :   0.2500 0.2273-0.0000  plane waves:   19855
 k-point  18 :   0.5000 0.2273-0.0000  plane waves:   19862
 k-point  19 :   0.0000 0.2727 0.0000  plane waves:   19837
 k-point  20 :   0.2500 0.2727 0.0000  plane waves:   19812
 k-point  21 :   0.5000 0.2727 0.0000  plane waves:   19834
 k-point  22 :   0.0000 0.3182-0.0000  plane waves:   19846
 k-point  23 :   0.2500 0.3182-0.0000  plane waves:   19837
 k-point  24 :   0.5000 0.3182-0.0000  plane waves:   19848
 k-point  25 :   0.0000 0.3636-0.0000  plane waves:   19852
 k-point  26 :   0.2500 0.3636-0.0000  plane waves:   19842
 k-point  27 :   0.5000 0.3636-0.0000  plane waves:   19844
 k-point  28 :   0.0000 0.4091-0.0000  plane waves:   19864
 k-point  29 :   0.2500 0.4091-0.0000  plane waves:   19859
 k-point  30 :   0.5000 0.4091-0.0000  plane waves:   19824
 k-point  31 :   0.0000 0.4545-0.0000  plane waves:   19902
 k-point  32 :   0.2500 0.4545-0.0000  plane waves:   19866
 k-point  33 :   0.5000 0.4545-0.0000  plane waves:   19862
 k-point  34 :   0.0000 0.5000 0.0000  plane waves:   19930
 k-point  35 :   0.2500 0.5000 0.0000  plane waves:   19858
 k-point  36 :   0.5000 0.5000 0.0000  plane waves:   19884

 maximum and minimum number of plane-waves per node :      5013     4922

 maximum number of plane-waves:     19930
 maximum index in each direction: 
   IXMAX=   25   IYMAX=    5   IZMAX=   35
   IXMIN=  -25   IYMIN=   -5   IZMIN=  -35


 real space projection operators:
  total allocation   :       9743.23 KBytes
  max/ min on nodes  :       2447.14       2424.45


 parallel 3D FFT for wavefunctions:
    minimum data exchange during FFTs selected (reduces bandwidth)
 parallel 3D FFT for charge:
    minimum data exchange during FFTs selected (reduces bandwidth)


 total amount of memory used by VASP MPI-rank0   184450. kBytes
=======================================================================

   base      :      30000. kBytes
   nonlr-proj:       5374. kBytes
   fftplans  :      30071. kBytes
   grid      :      16193. kBytes
   one-center:         77. kBytes
   wavefun   :     102735. kBytes
 
     INWAV:  cpu time      0.0000: real time      0.0000
 Broyden mixing: mesh for mixing (old mesh)
   NGX = 51   NGY = 11   NGZ = 71
  (NGX  =216   NGY  = 48   NGZ  =288)
  gives a total of  39831 points

 initial charge density was supplied:
 charge density of overlapping atoms calculated
 number of electron     140.0000000 magnetization 
 keeping initial charge density in first step


--------------------------------------------------------------------------------------------------------


 Maximum index for non-local projection operator         1716
 Maximum index for augmentation-charges         7689 (set IRDMAX)


--------------------------------------------------------------------------------------------------------


 First call to EWALD:  gamma=   0.150
 Maximum number of real-space cells 2x 8x 2
 Maximum number of reciprocal cells 4x 1x 5

    FEWALD:  cpu time      0.0019: real time      0.0019


--------------------------------------- Ionic step        1  -------------------------------------------




--------------------------------------- Iteration      1(   1)  ---------------------------------------


    POTLOK:  cpu time      0.1597: real time      0.2475
    SETDIJ:  cpu time      0.4616: real time      0.4619
     EDDAV:  cpu time     49.3520: real time     49.4117
       DOS:  cpu time      0.0082: real time      0.0082
    --------------------------------------------
      LOOP:  cpu time     49.9814: real time     50.1292

 eigenvalue-minimisations  : 10280
 total energy-change (2. order) : 0.6608710E+03  (-0.3420930E+04)
 number of electron     140.0000000 magnetization 
 augmentation part      140.0000000 magnetization 

 Free energy of the ion-electron system (eV)
  ---------------------------------------------------
  alpha Z        PSCENC =        66.99798409
  Ewald energy   TEWEN  =     29846.57578200
  -Hartree energ DENC   =    -38369.52283744
  -exchange      EXHF   =         0.00000000
  -V(xc)+E(xc)   XCENC  =      -356.72308291
  PAW double counting   =      8612.20315120    -8331.30786060
  entropy T*S    EENTRO =        -0.00792323
  eigenvalues    EBANDS =       -28.45506689
  atomic energy  EATOM  =      9221.11089956
  Solvation  Ediel_sol  =         0.00000000
  ---------------------------------------------------
  free energy    TOTEN  =       660.87104577 eV

  energy without entropy =      660.87896900  energy(sigma->0) =      660.87500739


--------------------------------------------------------------------------------------------------------




--------------------------------------- Iteration      1(   2)  ---------------------------------------


     EDDAV:  cpu time     59.4096: real time     59.4848
       DOS:  cpu time      0.0092: real time      0.0092
    --------------------------------------------
      LOOP:  cpu time     59.4188: real time     59.4940

 eigenvalue-minimisations  : 13064
 total energy-change (2. order) :-0.7117164E+03  (-0.6735458E+03)
 number of electron     140.0000000 magnetization 
 augmentation part      140.0000000 magnetization 

 Free energy of the ion-electron system (eV)
  ---------------------------------------------------
  alpha Z        PSCENC =        66.99798409
  Ewald energy   TEWEN  =     29846.57578200
  -Hartree energ DENC   =    -38369.52283744
  -exchange      EXHF   =         0.00000000
  -V(xc)+E(xc)   XCENC  =      -356.72308291
  PAW double counting   =      8612.20315120    -8331.30786060
  entropy T*S    EENTRO =        -0.00000314
  eigenvalues    EBANDS =      -740.17940333
  atomic energy  EATOM  =      9221.11089956
  Solvation  Ediel_sol  =         0.00000000
  ---------------------------------------------------
  free energy    TOTEN  =       -50.84537058 eV

  energy without entropy =      -50.84536744  energy(sigma->0) =      -50.84536901


--------------------------------------------------------------------------------------------------------




--------------------------------------- Iteration      1(   3)  ---------------------------------------


     EDDAV:  cpu time     60.2811: real time     60.3578
       DOS:  cpu time      0.0093: real time      0.0093
    --------------------------------------------
      LOOP:  cpu time     60.2905: real time     60.3671

 eigenvalue-minimisations  : 13336
 total energy-change (2. order) :-0.7263168E+02  (-0.7044130E+02)
 number of electron     140.0000000 magnetization 
 augmentation part      140.0000000 magnetization 

 Free energy of the ion-electron system (eV)
  ---------------------------------------------------
  alpha Z        PSCENC =        66.99798409
  Ewald energy   TEWEN  =     29846.57578200
  -Hartree energ DENC   =    -38369.52283744
  -exchange      EXHF   =         0.00000000
  -V(xc)+E(xc)   XCENC  =      -356.72308291
  PAW double counting   =      8612.20315120    -8331.30786060
  entropy T*S    EENTRO =        -0.00000000
  eigenvalues    EBANDS =      -812.81109020
  atomic energy  EATOM  =      9221.11089956
  Solvation  Ediel_sol  =         0.00000000
  ---------------------------------------------------
  free energy    TOTEN  =      -123.47705432 eV

  energy without entropy =     -123.47705432  energy(sigma->0) =     -123.47705432


--------------------------------------------------------------------------------------------------------




--------------------------------------- Iteration      1(   4)  ---------------------------------------


     EDDAV:  cpu time     59.6604: real time     59.7262
       DOS:  cpu time      0.0095: real time      0.0095
    --------------------------------------------
      LOOP:  cpu time     59.6699: real time     59.7357

 eigenvalue-minimisations  : 13152
 total energy-change (2. order) :-0.3068226E+01  (-0.3055996E+01)
 number of electron     140.0000000 magnetization 
 augmentation part      140.0000000 magnetization 

 Free energy of the ion-electron system (eV)
  ---------------------------------------------------
  alpha Z        PSCENC =        66.99798409
  Ewald energy   TEWEN  =     29846.57578200
  -Hartree energ DENC   =    -38369.52283744
  -exchange      EXHF   =         0.00000000
  -V(xc)+E(xc)   XCENC  =      -356.72308291
  PAW double counting   =      8612.20315120    -8331.30786060
  entropy T*S    EENTRO =        -0.00000000
  eigenvalues    EBANDS =      -815.87931634
  atomic energy  EATOM  =      9221.11089956
  Solvation  Ediel_sol  =         0.00000000
  ---------------------------------------------------
  free energy    TOTEN  =      -126.54528046 eV

  energy without entropy =     -126.54528045  energy(sigma->0) =     -126.54528046


--------------------------------------------------------------------------------------------------------




--------------------------------------- Iteration      1(   5)  ---------------------------------------


     EDDAV:  cpu time     60.5979: real time     60.6602
       DOS:  cpu time      0.0095: real time      0.0095
    --------------------------------------------
      LOOP:  cpu time     60.6074: real time     60.6697

 eigenvalue-minimisations  : 13432
 total energy-change (2. order) :-0.7590602E-01  (-0.7588487E-01)
 number of electron     140.0000000 magnetization 
 augmentation part      140.0000000 magnetization 

 Free energy of the ion-electron system (eV)
  ---------------------------------------------------
  alpha Z        PSCENC =        66.99798409
  Ewald energy   TEWEN  =     29846.57578200
  -Hartree energ DENC   =    -38369.52283744
  -exchange      EXHF   =         0.00000000
  -V(xc)+E(xc)   XCENC  =      -356.72308291
  PAW double counting   =      8612.20315120    -8331.30786060
  entropy T*S    EENTRO =        -0.00000000
  eigenvalues    EBANDS =      -815.95522236
  atomic energy  EATOM  =      9221.11089956
  Solvation  Ediel_sol  =         0.00000000
  ---------------------------------------------------
  free energy    TOTEN  =      -126.62118648 eV

  energy without entropy =     -126.62118647  energy(sigma->0) =     -126.62118648


--------------------------------------------------------------------------------------------------------




--------------------------------------- Iteration      1(   6)  ---------------------------------------


     EDDAV:  cpu time     60.9397: real time     61.0040
       DOS:  cpu time      0.0094: real time      0.0094
    --------------------------------------------
      LOOP:  cpu time     60.9491: real time     61.0134

 eigenvalue-minimisations  : 13512
 total energy-change (2. order) :-0.2449107E-02  (-0.2449019E-02)
 number of electron     140.0000000 magnetization 
 augmentation part      140.0000000 magnetization 

 Free energy of the ion-electron system (eV)
  ---------------------------------------------------
  alpha Z        PSCENC =        66.99798409
  Ewald energy   TEWEN  =     29846.57578200
  -Hartree energ DENC   =    -38369.52283744
  -exchange      EXHF   =         0.00000000
  -V(xc)+E(xc)   XCENC  =      -356.72308291
  PAW double counting   =      8612.20315120    -8331.30786060
  entropy T*S    EENTRO =        -0.00000000
  eigenvalues    EBANDS =      -815.95767147
  atomic energy  EATOM  =      9221.11089956
  Solvation  Ediel_sol  =         0.00000000
  ---------------------------------------------------
  free energy    TOTEN  =      -126.62363559 eV

  energy without entropy =     -126.62363558  energy(sigma->0) =     -126.62363558


--------------------------------------------------------------------------------------------------------




--------------------------------------- Iteration      1(   7)  ---------------------------------------


     EDDAV:  cpu time     61.6704: real time     61.7355
       DOS:  cpu time      0.0095: real time      0.0095
    --------------------------------------------
      LOOP:  cpu time     61.6799: real time     61.7450

 eigenvalue-minimisations  : 13736
 total energy-change (2. order) :-0.1202436E-03  (-0.1202424E-03)
 number of electron     140.0000000 magnetization 
 augmentation part      140.0000000 magnetization 

 Free energy of the ion-electron system (eV)
  ---------------------------------------------------
  alpha Z        PSCENC =        66.99798409
  Ewald energy   TEWEN  =     29846.57578200
  -Hartree energ DENC   =    -38369.52283744
  -exchange      EXHF   =         0.00000000
  -V(xc)+E(xc)   XCENC  =      -356.72308291
  PAW double counting   =      8612.20315120    -8331.30786060
  entropy T*S    EENTRO =        -0.00000000
  eigenvalues    EBANDS =      -815.95779171
  atomic energy  EATOM  =      9221.11089956
  Solvation  Ediel_sol  =         0.00000000
  ---------------------------------------------------
  free energy    TOTEN  =      -126.62375583 eV

  energy without entropy =     -126.62375582  energy(sigma->0) =     -126.62375583


--------------------------------------------------------------------------------------------------------




--------------------------------------- Iteration      1(   8)  ---------------------------------------


     EDDAV:  cpu time     60.9763: real time     61.0427
       DOS:  cpu time      0.0095: real time      0.0095
    --------------------------------------------
      LOOP:  cpu time     60.9858: real time     61.0522

 eigenvalue-minimisations  : 13520
 total energy-change (2. order) :-0.6137736E-05  (-0.6137772E-05)
 number of electron     140.0000000 magnetization 
 augmentation part      140.0000000 magnetization 

 Free energy of the ion-electron system (eV)
  ---------------------------------------------------
  alpha Z        PSCENC =        66.99798409
  Ewald energy   TEWEN  =     29846.57578200
  -Hartree energ DENC   =    -38369.52283744
  -exchange      EXHF   =         0.00000000
  -V(xc)+E(xc)   XCENC  =      -356.72308291
  PAW double counting   =      8612.20315120    -8331.30786060
  entropy T*S    EENTRO =        -0.00000000
  eigenvalues    EBANDS =      -815.95779785
  atomic energy  EATOM  =      9221.11089956
  Solvation  Ediel_sol  =         0.00000000
  ---------------------------------------------------
  free energy    TOTEN  =      -126.62376197 eV

  energy without entropy =     -126.62376196  energy(sigma->0) =     -126.62376196


--------------------------------------------------------------------------------------------------------




--------------------------------------- Iteration      1(   9)  ---------------------------------------


     EDDAV:  cpu time     49.7341: real time     49.7893
       DOS:  cpu time      0.0096: real time      0.0096
    --------------------------------------------
      LOOP:  cpu time     49.7437: real time     49.7989

 eigenvalue-minimisations  : 10344
 total energy-change (2. order) :-0.3853420E-06  (-0.3853211E-06)
 number of electron     140.0000000 magnetization 
 augmentation part      140.0000000 magnetization 

 Free energy of the ion-electron system (eV)
  ---------------------------------------------------
  alpha Z        PSCENC =        66.99798409
  Ewald energy   TEWEN  =     29846.57578200
  -Hartree energ DENC   =    -38369.52283744
  -exchange      EXHF   =         0.00000000
  -V(xc)+E(xc)   XCENC  =      -356.72308291
  PAW double counting   =      8612.20315120    -8331.30786060
  entropy T*S    EENTRO =        -0.00000000
  eigenvalues    EBANDS =      -815.95779824
  atomic energy  EATOM  =      9221.11089956
  Solvation  Ediel_sol  =         0.00000000
  ---------------------------------------------------
  free energy    TOTEN  =      -126.62376235 eV

  energy without entropy =     -126.62376235  energy(sigma->0) =     -126.62376235


--------------------------------------------------------------------------------------------------------




--------------------------------------- Iteration      1(  10)  ---------------------------------------


     EDDAV:  cpu time     41.0937: real time     41.1387
       DOS:  cpu time      0.0095: real time      0.0095
    --------------------------------------------
      LOOP:  cpu time     41.1032: real time     41.1482

 eigenvalue-minimisations  :  7872
 total energy-change (2. order) :-0.2280285E-07  (-0.2274149E-07)
 number of electron     140.0000000 magnetization 
 augmentation part      140.0000000 magnetization 

 Free energy of the ion-electron system (eV)
  ---------------------------------------------------
  alpha Z        PSCENC =        66.99798409
  Ewald energy   TEWEN  =     29846.57578200
  -Hartree energ DENC   =    -38369.52283744
  -exchange      EXHF   =         0.00000000
  -V(xc)+E(xc)   XCENC  =      -356.72308291
  PAW double counting   =      8612.20315120    -8331.30786060
  entropy T*S    EENTRO =        -0.00000000
  eigenvalues    EBANDS =      -815.95779826
  atomic energy  EATOM  =      9221.11089956
  Solvation  Ediel_sol  =         0.00000000
  ---------------------------------------------------
  free energy    TOTEN  =      -126.62376237 eV

  energy without entropy =     -126.62376237  energy(sigma->0) =     -126.62376237


--------------------------------------------------------------------------------------------------------




--------------------------------------- Iteration      1(  11)  ---------------------------------------


     EDDAV:  cpu time     36.7668: real time     36.8079
       DOS:  cpu time      0.0097: real time      0.0097
    --------------------------------------------
      LOOP:  cpu time     36.7765: real time     36.8175

 eigenvalue-minimisations  :  6656
 total energy-change (2. order) :-0.4802132E-08  (-0.4920152E-08)
 number of electron     140.0000000 magnetization 
 augmentation part      140.0000000 magnetization 

 Free energy of the ion-electron system (eV)
  ---------------------------------------------------
  alpha Z        PSCENC =        66.99798409
  Ewald energy   TEWEN  =     29846.57578200
  -Hartree energ DENC   =    -38369.52283744
  -exchange      EXHF   =         0.00000000
  -V(xc)+E(xc)   XCENC  =      -356.72308291
  PAW double counting   =      8612.20315120    -8331.30786060
  entropy T*S    EENTRO =        -0.00000000
  eigenvalues    EBANDS =      -815.95779826
  atomic energy  EATOM  =      9221.11089956
  Solvation  Ediel_sol  =         0.00000000
  ---------------------------------------------------
  free energy    TOTEN  =      -126.62376238 eV

  energy without entropy =     -126.62376238  energy(sigma->0) =     -126.62376238


--------------------------------------------------------------------------------------------------------




--------------------------------------- Iteration      1(  12)  ---------------------------------------


     EDDAV:  cpu time     35.6436: real time     35.6833
       DOS:  cpu time      0.0095: real time      0.0095
    CHARGE:  cpu time      0.9244: real time      0.9248
    MIXING:  cpu time      0.0938: real time      0.0938
    --------------------------------------------
      LOOP:  cpu time     36.6713: real time     36.7114

 eigenvalue-minimisations  :  6328
 total energy-change (2. order) :-0.2371962E-08  (-0.2255316E-08)
 number of electron     140.0000003 magnetization 
 augmentation part       23.8943674 magnetization 

 Broyden mixing:
  rms(total) = 0.39323E+01    rms(broyden)= 0.39318E+01
  rms(prec ) = 0.39808E+01
  weight for this iteration     100.00

 Free energy of the ion-electron system (eV)
  ---------------------------------------------------
  alpha Z        PSCENC =        66.99798409
  Ewald energy   TEWEN  =     29846.57578200
  -Hartree energ DENC   =    -38369.52283744
  -exchange      EXHF   =         0.00000000
  -V(xc)+E(xc)   XCENC  =      -356.72308291
  PAW double counting   =      8612.20315120    -8331.30786060
  entropy T*S    EENTRO =        -0.00000000
  eigenvalues    EBANDS =      -815.95779827
  atomic energy  EATOM  =      9221.11089956
  Solvation  Ediel_sol  =         0.00000000
  ---------------------------------------------------
  free energy    TOTEN  =      -126.62376238 eV

  energy without entropy =     -126.62376238  energy(sigma->0) =     -126.62376238


--------------------------------------------------------------------------------------------------------




--------------------------------------- Iteration      1(  13)  ---------------------------------------


    POTLOK:  cpu time      0.1582: real time      0.1583
    SETDIJ:  cpu time      0.4594: real time      0.4597
     EDDAV:  cpu time     60.6842: real time     60.7519
       DOS:  cpu time      0.0095: real time      0.0095
    CHARGE:  cpu time      0.9201: real time      0.9207
    MIXING:  cpu time      0.0962: real time      0.0962
    --------------------------------------------
      LOOP:  cpu time     62.3275: real time     62.3963

 eigenvalue-minimisations  : 13440
 total energy-change (2. order) : 0.3305879E+01  (-0.3540911E+00)
 number of electron     140.0000003 magnetization 
 augmentation part       26.4605978 magnetization 

 Broyden mixing:
  rms(total) = 0.31408E+01    rms(broyden)= 0.31408E+01
  rms(prec ) = 0.31684E+01
  weight for this iteration     100.00

 eigenvalues of (default mixing * dielectric matrix)
  average eigenvalue GAMMA=   2.0612
  2.0612

 Free energy of the ion-electron system (eV)
  ---------------------------------------------------
  alpha Z        PSCENC =        66.99798409
  Ewald energy   TEWEN  =     29846.57578200
  -Hartree energ DENC   =    -38347.10108356
  -exchange      EXHF   =         0.00000000
  -V(xc)+E(xc)   XCENC  =      -357.83375614
  PAW double counting   =      9035.77190975    -8749.15211842
  entropy T*S    EENTRO =        -0.00000000
  eigenvalues    EBANDS =      -839.68750088
  atomic energy  EATOM  =      9221.11089956
  Solvation  Ediel_sol  =         0.00000000
  ---------------------------------------------------
  free energy    TOTEN  =      -123.31788361 eV

  energy without entropy =     -123.31788361  energy(sigma->0) =     -123.31788361


--------------------------------------------------------------------------------------------------------




--------------------------------------- Iteration      1(  14)  ---------------------------------------


    POTLOK:  cpu time      0.1558: real time      0.1560
    SETDIJ:  cpu time      0.4591: real time      0.4593
     EDDAV:  cpu time     61.6918: real time     61.7601
       DOS:  cpu time      0.0104: real time      0.0104
    CHARGE:  cpu time      0.9254: real time      0.9260
    MIXING:  cpu time      0.0963: real time      0.0963
    --------------------------------------------
      LOOP:  cpu time     63.3387: real time     63.4081

 eigenvalue-minimisations  : 13744
 total energy-change (2. order) : 0.2482987E+01  (-0.2285067E+00)
 number of electron     140.0000003 magnetization 
 augmentation part       26.1026777 magnetization 

 Broyden mixing:
  rms(total) = 0.23057E+01    rms(broyden)= 0.23057E+01
  rms(prec ) = 0.23227E+01
  weight for this iteration     100.00

 eigenvalues of (default mixing * dielectric matrix)
  average eigenvalue GAMMA=   3.4696
  0.8136  6.1257

 Free energy of the ion-electron system (eV)
  ---------------------------------------------------
  alpha Z        PSCENC =        66.99798409
  Ewald energy   TEWEN  =     29846.57578200
  -Hartree energ DENC   =    -38407.84316027
  -exchange      EXHF   =         0.00000000
  -V(xc)+E(xc)   XCENC  =      -357.12683667
  PAW double counting   =      9901.65724071    -9617.52061982
  entropy T*S    EENTRO =        -0.00000075
  eigenvalues    EBANDS =      -774.68618561
  atomic energy  EATOM  =      9221.11089956
  Solvation  Ediel_sol  =         0.00000000
  ---------------------------------------------------
  free energy    TOTEN  =      -120.83489677 eV

  energy without entropy =     -120.83489602  energy(sigma->0) =     -120.83489640


--------------------------------------------------------------------------------------------------------




--------------------------------------- Iteration      1(  15)  ---------------------------------------


    POTLOK:  cpu time      0.1575: real time      0.1577
    SETDIJ:  cpu time      0.4594: real time      0.4597
     EDDAV:  cpu time     56.6523: real time     56.7164
       DOS:  cpu time      0.0097: real time      0.0097
    CHARGE:  cpu time      0.9274: real time      0.9279
    MIXING:  cpu time      0.0900: real time      0.0900
    --------------------------------------------
      LOOP:  cpu time     58.2964: real time     58.3613

 eigenvalue-minimisations  : 12328
 total energy-change (2. order) : 0.8542786E+00  (-0.1163785E+01)
 number of electron     140.0000003 magnetization 
 augmentation part       27.6856050 magnetization 

 Broyden mixing:
  rms(total) = 0.60265E+00    rms(broyden)= 0.60257E+00
  rms(prec ) = 0.62303E+00
  weight for this iteration     100.00

 eigenvalues of (default mixing * dielectric matrix)
  average eigenvalue GAMMA=   2.9467
  6.3883  1.6414  0.8105

 Free energy of the ion-electron system (eV)
  ---------------------------------------------------
  alpha Z        PSCENC =        66.99798409
  Ewald energy   TEWEN  =     29846.57578200
  -Hartree energ DENC   =    -38486.44502155
  -exchange      EXHF   =         0.00000000
  -V(xc)+E(xc)   XCENC  =      -356.61312802
  PAW double counting   =     12175.99454587   -11892.22434765
  entropy T*S    EENTRO =        -0.00177633
  eigenvalues    EBANDS =      -695.37555617
  atomic energy  EATOM  =      9221.11089956
  Solvation  Ediel_sol  =         0.00000000
  ---------------------------------------------------
  free energy    TOTEN  =      -119.98061820 eV

  energy without entropy =     -119.97884187  energy(sigma->0) =     -119.97973004


--------------------------------------------------------------------------------------------------------




--------------------------------------- Iteration      1(  16)  ---------------------------------------


    POTLOK:  cpu time      0.1575: real time      0.1576
    SETDIJ:  cpu time      0.4585: real time      0.4588
     EDDAV:  cpu time     58.4938: real time     58.5580
       DOS:  cpu time      0.0097: real time      0.0097
    CHARGE:  cpu time      0.9264: real time      0.9269
    MIXING:  cpu time      0.0932: real time      0.0932
    --------------------------------------------
      LOOP:  cpu time     60.1390: real time     60.2041

 eigenvalue-minimisations  : 12848
 total energy-change (2. order) : 0.2987846E+00  (-0.8265230E-01)
 number of electron     140.0000003 magnetization 
 augmentation part       27.7544824 magnetization 

 Broyden mixing:
  rms(total) = 0.54737E+00    rms(broyden)= 0.54734E+00
  rms(prec ) = 0.55667E+00
  weight for this iteration     100.00

 eigenvalues of (default mixing * dielectric matrix)
  average eigenvalue GAMMA=   2.7961
  7.3896  2.2249  0.7849  0.7849

 Free energy of the ion-electron system (eV)
  ---------------------------------------------------
  alpha Z        PSCENC =        66.99798409
  Ewald energy   TEWEN  =     29846.57578200
  -Hartree energ DENC   =    -38477.80662071
  -exchange      EXHF   =         0.00000000
  -V(xc)+E(xc)   XCENC  =      -356.60268631
  PAW double counting   =     12488.40343485   -12207.87229475
  entropy T*S    EENTRO =        -0.00043457
  eigenvalues    EBANDS =      -700.48789775
  atomic energy  EATOM  =      9221.11089956
  Solvation  Ediel_sol  =         0.00000000
  ---------------------------------------------------
  free energy    TOTEN  =      -119.68183360 eV

  energy without entropy =     -119.68139903  energy(sigma->0) =     -119.68161632


--------------------------------------------------------------------------------------------------------




--------------------------------------- Iteration      1(  17)  ---------------------------------------


    POTLOK:  cpu time      0.1575: real time      0.1576
    SETDIJ:  cpu time      0.4599: real time      0.4602
     EDDAV:  cpu time     66.7860: real time     66.8612
       DOS:  cpu time      0.0095: real time      0.0095
    CHARGE:  cpu time      0.9216: real time      0.9222
    MIXING:  cpu time      0.0951: real time      0.0952
    --------------------------------------------
      LOOP:  cpu time     68.4296: real time     68.5059

 eigenvalue-minimisations  : 15196
 total energy-change (2. order) : 0.7525530E-01  (-0.1634460E-01)
 number of electron     140.0000003 magnetization 
 augmentation part       27.5778861 magnetization 

 Broyden mixing:
  rms(total) = 0.37485E+00    rms(broyden)= 0.37484E+00
  rms(prec ) = 0.38458E+00
  weight for this iteration     100.00

 eigenvalues of (default mixing * dielectric matrix)
  average eigenvalue GAMMA=   2.7906
  8.6336  2.6924  0.9513  0.9513  0.7244

 Free energy of the ion-electron system (eV)
  ---------------------------------------------------
  alpha Z        PSCENC =        66.99798409
  Ewald energy   TEWEN  =     29846.57578200
  -Hartree energ DENC   =    -38476.01411328
  -exchange      EXHF   =         0.00000000
  -V(xc)+E(xc)   XCENC  =      -356.32091845
  PAW double counting   =     13027.23786854   -12750.26245511
  entropy T*S    EENTRO =        -0.00104261
  eigenvalues    EBANDS =      -698.93058304
  atomic energy  EATOM  =      9221.11089956
  Solvation  Ediel_sol  =         0.00000000
  ---------------------------------------------------
  free energy    TOTEN  =      -119.60657831 eV

  energy without entropy =     -119.60553569  energy(sigma->0) =     -119.60605700


--------------------------------------------------------------------------------------------------------




--------------------------------------- Iteration      1(  18)  ---------------------------------------


    POTLOK:  cpu time      0.1585: real time      0.1586
    SETDIJ:  cpu time      0.4585: real time      0.4588
     EDDAV:  cpu time     60.1501: real time     60.2178
       DOS:  cpu time      0.0098: real time      0.0098
    CHARGE:  cpu time      0.9270: real time      0.9276
    MIXING:  cpu time      0.0929: real time      0.0929
    --------------------------------------------
      LOOP:  cpu time     61.7968: real time     61.8655

 eigenvalue-minimisations  : 13312
 total energy-change (2. order) : 0.7966146E-01  (-0.1444292E-01)
 number of electron     140.0000003 magnetization 
 augmentation part       27.3957491 magnetization 

 Broyden mixing:
  rms(total) = 0.24348E+00    rms(broyden)= 0.24345E+00
  rms(prec ) = 0.25544E+00
  weight for this iteration     100.00

 eigenvalues of (default mixing * dielectric matrix)
  average eigenvalue GAMMA=   2.7269
  9.0698  2.8793  2.1637  0.8690  0.8690  0.5109

 Free energy of the ion-electron system (eV)
  ---------------------------------------------------
  alpha Z        PSCENC =        66.99798409
  Ewald energy   TEWEN  =     29846.57578200
  -Hartree energ DENC   =    -38468.06136686
  -exchange      EXHF   =         0.00000000
  -V(xc)+E(xc)   XCENC  =      -356.04267136
  PAW double counting   =     13580.72670231   -13307.57382839
  entropy T*S    EENTRO =        -0.00029347
  eigenvalues    EBANDS =      -703.26012472
  atomic energy  EATOM  =      9221.11089956
  Solvation  Ediel_sol  =         0.00000000
  ---------------------------------------------------
  free energy    TOTEN  =      -119.52691684 eV

  energy without entropy =     -119.52662337  energy(sigma->0) =     -119.52677011


--------------------------------------------------------------------------------------------------------




--------------------------------------- Iteration      1(  19)  ---------------------------------------


    POTLOK:  cpu time      0.1584: real time      0.1587
    SETDIJ:  cpu time      0.4586: real time      0.4589
     EDDAV:  cpu time     61.1599: real time     61.2261
       DOS:  cpu time      0.0095: real time      0.0095
    CHARGE:  cpu time      0.9280: real time      0.9286
    MIXING:  cpu time      0.0900: real time      0.0900
    --------------------------------------------
      LOOP:  cpu time     62.8044: real time     62.8717

 eigenvalue-minimisations  : 13600
 total energy-change (2. order) : 0.8513046E-01  (-0.1426360E-01)
 number of electron     140.0000003 magnetization 
 augmentation part       27.3597593 magnetization 

 Broyden mixing:
  rms(total) = 0.19832E+00    rms(broyden)= 0.19831E+00
  rms(prec ) = 0.20117E+00
  weight for this iteration     100.00

 eigenvalues of (default mixing * dielectric matrix)
  average eigenvalue GAMMA=   2.4288
  9.0950  2.6750  2.6750  0.8616  0.8616  0.5174  0.3159

 Free energy of the ion-electron system (eV)
  ---------------------------------------------------
  alpha Z        PSCENC =        66.99798409
  Ewald energy   TEWEN  =     29846.57578200
  -Hartree energ DENC   =    -38451.51832892
  -exchange      EXHF   =         0.00000000
  -V(xc)+E(xc)   XCENC  =      -355.97792059
  PAW double counting   =     13808.18198055   -13537.20237314
  entropy T*S    EENTRO =        -0.00026744
  eigenvalues    EBANDS =      -717.60954249
  atomic energy  EATOM  =      9221.11089956
  Solvation  Ediel_sol  =         0.00000000
  ---------------------------------------------------
  free energy    TOTEN  =      -119.44178638 eV

  energy without entropy =     -119.44151894  energy(sigma->0) =     -119.44165266


--------------------------------------------------------------------------------------------------------




--------------------------------------- Iteration      1(  20)  ---------------------------------------


    POTLOK:  cpu time      0.1591: real time      0.1592
    SETDIJ:  cpu time      0.4605: real time      0.4607
     EDDAV:  cpu time     53.2863: real time     53.3442
       DOS:  cpu time      0.0097: real time      0.0097
    CHARGE:  cpu time      0.9260: real time      0.9265
    MIXING:  cpu time      0.0920: real time      0.0921
    --------------------------------------------
      LOOP:  cpu time     54.9337: real time     54.9924

 eigenvalue-minimisations  : 11364
 total energy-change (2. order) :-0.1514112E-02  (-0.4378107E-02)
 number of electron     140.0000003 magnetization 
 augmentation part       27.3293803 magnetization 

 Broyden mixing:
  rms(total) = 0.15149E+00    rms(broyden)= 0.15149E+00
  rms(prec ) = 0.15452E+00
  weight for this iteration     100.00

 eigenvalues of (default mixing * dielectric matrix)
  average eigenvalue GAMMA=   2.2521
  8.8940  3.4072  1.9546  0.8993  0.8993  0.7387  0.7387  0.4853

 Free energy of the ion-electron system (eV)
  ---------------------------------------------------
  alpha Z        PSCENC =        66.99798409
  Ewald energy   TEWEN  =     29846.57578200
  -Hartree energ DENC   =    -38450.73918101
  -exchange      EXHF   =         0.00000000
  -V(xc)+E(xc)   XCENC  =      -355.97585819
  PAW double counting   =     13822.16884773   -13551.31302837
  entropy T*S    EENTRO =        -0.00024735
  eigenvalues    EBANDS =      -718.26849894
  atomic energy  EATOM  =      9221.11089956
  Solvation  Ediel_sol  =         0.00000000
  ---------------------------------------------------
  free energy    TOTEN  =      -119.44330049 eV

  energy without entropy =     -119.44305314  energy(sigma->0) =     -119.44317682


--------------------------------------------------------------------------------------------------------




--------------------------------------- Iteration      1(  21)  ---------------------------------------


    POTLOK:  cpu time      0.1594: real time      0.1595
    SETDIJ:  cpu time      0.4579: real time      0.4583
     EDDAV:  cpu time     61.3192: real time     61.3871
       DOS:  cpu time      0.0098: real time      0.0098
    CHARGE:  cpu time      0.9248: real time      0.9255
    MIXING:  cpu time      0.0943: real time      0.0943
    --------------------------------------------
      LOOP:  cpu time     62.9654: real time     63.0344

 eigenvalue-minimisations  : 13644
 total energy-change (2. order) : 0.1496377E-01  (-0.1006451E-02)
 number of electron     140.0000003 magnetization 
 augmentation part       27.3179180 magnetization 

 Broyden mixing:
  rms(total) = 0.15210E+00    rms(broyden)= 0.15210E+00
  rms(prec ) = 0.15337E+00
  weight for this iteration     100.00

 eigenvalues of (default mixing * dielectric matrix)
  average eigenvalue GAMMA=   2.3678
  9.2597  3.8739  2.0402  1.6414  1.6414  0.9205  0.8369  0.6183  0.4780

 Free energy of the ion-electron system (eV)
  ---------------------------------------------------
  alpha Z        PSCENC =        66.99798409
  Ewald energy   TEWEN  =     29846.57578200
  -Hartree energ DENC   =    -38448.35607810
  -exchange      EXHF   =         0.00000000
  -V(xc)+E(xc)   XCENC  =      -356.02455493
  PAW double counting   =     13773.48814539   -13502.68782550
  entropy T*S    EENTRO =        -0.00013441
  eigenvalues    EBANDS =      -720.53255481
  atomic energy  EATOM  =      9221.11089956
  Solvation  Ediel_sol  =         0.00000000
  ---------------------------------------------------
  free energy    TOTEN  =      -119.42833672 eV

  energy without entropy =     -119.42820232  energy(sigma->0) =     -119.42826952


--------------------------------------------------------------------------------------------------------




--------------------------------------- Iteration      1(  22)  ---------------------------------------


    POTLOK:  cpu time      0.1592: real time      0.1594
    SETDIJ:  cpu time      0.4574: real time      0.4576
     EDDAV:  cpu time     62.2537: real time     62.3232
       DOS:  cpu time      0.0096: real time      0.0096
    CHARGE:  cpu time      0.9239: real time      0.9245
    MIXING:  cpu time      0.0952: real time      0.0952
    --------------------------------------------
      LOOP:  cpu time     63.8990: real time     63.9694

 eigenvalue-minimisations  : 13904
 total energy-change (2. order) : 0.5770082E-02  (-0.1536478E-02)
 number of electron     140.0000003 magnetization 
 augmentation part       27.2571716 magnetization 

 Broyden mixing:
  rms(total) = 0.12422E+00    rms(broyden)= 0.12422E+00
  rms(prec ) = 0.12511E+00
  weight for this iteration     100.00

 eigenvalues of (default mixing * dielectric matrix)
  average eigenvalue GAMMA=   2.3864
  9.4688  4.9352  3.1810  1.5937  1.3173  0.9356  0.8290  0.5563  0.5238  0.5238

 Free energy of the ion-electron system (eV)
  ---------------------------------------------------
  alpha Z        PSCENC =        66.99798409
  Ewald energy   TEWEN  =     29846.57578200
  -Hartree energ DENC   =    -38446.65077700
  -exchange      EXHF   =         0.00000000
  -V(xc)+E(xc)   XCENC  =      -355.99929377
  PAW double counting   =     13893.30867316   -13623.20001637
  entropy T*S    EENTRO =        -0.00014029
  eigenvalues    EBANDS =      -721.56567802
  atomic energy  EATOM  =      9221.11089956
  Solvation  Ediel_sol  =         0.00000000
  ---------------------------------------------------
  free energy    TOTEN  =      -119.42256664 eV

  energy without entropy =     -119.42242635  energy(sigma->0) =     -119.42249650


--------------------------------------------------------------------------------------------------------




--------------------------------------- Iteration      1(  23)  ---------------------------------------


    POTLOK:  cpu time      0.1587: real time      0.1588
    SETDIJ:  cpu time      0.4584: real time      0.4588
     EDDAV:  cpu time     61.4091: real time     61.4787
       DOS:  cpu time      0.0097: real time      0.0097
    CHARGE:  cpu time      0.9283: real time      0.9289
    MIXING:  cpu time      0.0914: real time      0.0915
    --------------------------------------------
      LOOP:  cpu time     63.0556: real time     63.1263

 eigenvalue-minimisations  : 13664
 total energy-change (2. order) : 0.1079190E-02  (-0.7908777E-03)
 number of electron     140.0000003 magnetization 
 augmentation part       27.2430721 magnetization 

 Broyden mixing:
  rms(total) = 0.10925E+00    rms(broyden)= 0.10925E+00
  rms(prec ) = 0.10971E+00
  weight for this iteration     100.00

 eigenvalues of (default mixing * dielectric matrix)
  average eigenvalue GAMMA=   2.4537
  9.0066  6.9483  3.8236  1.8147  0.9623  0.9623  0.9576  0.7826  0.7826  0.5066
  0.4440

 Free energy of the ion-electron system (eV)
  ---------------------------------------------------
  alpha Z        PSCENC =        66.99798409
  Ewald energy   TEWEN  =     29846.57578200
  -Hartree energ DENC   =    -38445.90851850
  -exchange      EXHF   =         0.00000000
  -V(xc)+E(xc)   XCENC  =      -356.00509286
  PAW double counting   =     13949.17873792   -13679.26558190
  entropy T*S    EENTRO =        -0.00012941
  eigenvalues    EBANDS =      -722.10556836
  atomic energy  EATOM  =      9221.11089956
  Solvation  Ediel_sol  =         0.00000000
  ---------------------------------------------------
  free energy    TOTEN  =      -119.42148745 eV

  energy without entropy =     -119.42135805  energy(sigma->0) =     -119.42142275


--------------------------------------------------------------------------------------------------------




--------------------------------------- Iteration      1(  24)  ---------------------------------------


    POTLOK:  cpu time      0.1589: real time      0.1590
    SETDIJ:  cpu time      0.4575: real time      0.4577
     EDDAV:  cpu time     61.2907: real time     61.3605
       DOS:  cpu time      0.0096: real time      0.0096
    CHARGE:  cpu time      0.9228: real time      0.9234
    MIXING:  cpu time      0.0965: real time      0.0965
    --------------------------------------------
      LOOP:  cpu time     62.9360: real time     63.0068

 eigenvalue-minimisations  : 13620
 total energy-change (2. order) :-0.1278465E-02  (-0.3210894E-03)
 number of electron     140.0000003 magnetization 
 augmentation part       27.2692451 magnetization 

 Broyden mixing:
  rms(total) = 0.10019E+00    rms(broyden)= 0.10018E+00
  rms(prec ) = 0.10095E+00
  weight for this iteration     100.00

 eigenvalues of (default mixing * dielectric matrix)
  average eigenvalue GAMMA=   2.4242
  8.7056  8.1116  3.9858  1.8935  1.1636  1.1636  0.8490  0.8340  0.8340  0.6314
  0.4737  0.4445

 Free energy of the ion-electron system (eV)
  ---------------------------------------------------
  alpha Z        PSCENC =        66.99798409
  Ewald energy   TEWEN  =     29846.57578200
  -Hartree energ DENC   =    -38446.60735462
  -exchange      EXHF   =         0.00000000
  -V(xc)+E(xc)   XCENC  =      -356.03937227
  PAW double counting   =     13959.56751611   -13689.39778260
  entropy T*S    EENTRO =        -0.00013759
  eigenvalues    EBANDS =      -721.63030058
  atomic energy  EATOM  =      9221.11089956
  Solvation  Ediel_sol  =         0.00000000
  ---------------------------------------------------
  free energy    TOTEN  =      -119.42276592 eV

  energy without entropy =     -119.42262832  energy(sigma->0) =     -119.42269712


--------------------------------------------------------------------------------------------------------




--------------------------------------- Iteration      1(  25)  ---------------------------------------


    POTLOK:  cpu time      0.1587: real time      0.1589
    SETDIJ:  cpu time      0.4577: real time      0.4580
     EDDAV:  cpu time     63.2628: real time     63.3346
       DOS:  cpu time      0.0098: real time      0.0098
    CHARGE:  cpu time      0.9281: real time      0.9287
    MIXING:  cpu time      0.0918: real time      0.0918
    --------------------------------------------
      LOOP:  cpu time     64.9089: real time     64.9818

 eigenvalue-minimisations  : 14184
 total energy-change (2. order) : 0.1894624E-03  (-0.1105346E-03)
 number of electron     140.0000003 magnetization 
 augmentation part       27.2729754 magnetization 

 Broyden mixing:
  rms(total) = 0.93000E-01    rms(broyden)= 0.92999E-01
  rms(prec ) = 0.93739E-01
  weight for this iteration     100.00

 eigenvalues of (default mixing * dielectric matrix)
  average eigenvalue GAMMA=   2.4008
  9.7091  7.3887  4.0572  1.9987  1.6184  1.6184  0.9533  0.9533  0.7258  0.7258
  0.5313  0.4991  0.4309

 Free energy of the ion-electron system (eV)
  ---------------------------------------------------
  alpha Z        PSCENC =        66.99798409
  Ewald energy   TEWEN  =     29846.57578200
  -Hartree energ DENC   =    -38446.84190531
  -exchange      EXHF   =         0.00000000
  -V(xc)+E(xc)   XCENC  =      -356.03912875
  PAW double counting   =     13980.32559470   -13710.18009654
  entropy T*S    EENTRO =        -0.00014508
  eigenvalues    EBANDS =      -721.37156111
  atomic energy  EATOM  =      9221.11089956
  Solvation  Ediel_sol  =         0.00000000
  ---------------------------------------------------
  free energy    TOTEN  =      -119.42257645 eV

  energy without entropy =     -119.42243138  energy(sigma->0) =     -119.42250391


--------------------------------------------------------------------------------------------------------




--------------------------------------- Iteration      1(  26)  ---------------------------------------


    POTLOK:  cpu time      0.1589: real time      0.1591
    SETDIJ:  cpu time      0.4574: real time      0.4576
     EDDAV:  cpu time     56.7916: real time     56.8560
       DOS:  cpu time      0.0098: real time      0.0098
    CHARGE:  cpu time      0.9220: real time      0.9225
    MIXING:  cpu time      0.0965: real time      0.0966
    --------------------------------------------
      LOOP:  cpu time     58.4362: real time     58.5015

 eigenvalue-minimisations  : 12352
 total energy-change (2. order) : 0.1859239E-02  (-0.1762626E-03)
 number of electron     140.0000003 magnetization 
 augmentation part       27.2528477 magnetization 

 Broyden mixing:
  rms(total) = 0.75445E-01    rms(broyden)= 0.75444E-01
  rms(prec ) = 0.75777E-01
  weight for this iteration     100.00

 eigenvalues of (default mixing * dielectric matrix)
  average eigenvalue GAMMA=   2.3099
  9.6037  6.9830  4.0228  2.2630  2.2630  1.5572  0.9577  0.9577  0.8756  0.7243
  0.7243  0.5078  0.4677  0.4306

 Free energy of the ion-electron system (eV)
  ---------------------------------------------------
  alpha Z        PSCENC =        66.99798409
  Ewald energy   TEWEN  =     29846.57578200
  -Hartree energ DENC   =    -38446.44678371
  -exchange      EXHF   =         0.00000000
  -V(xc)+E(xc)   XCENC  =      -356.01352528
  PAW double counting   =     14016.60136822   -13746.75260535
  entropy T*S    EENTRO =        -0.00014311
  eigenvalues    EBANDS =      -721.49369362
  atomic energy  EATOM  =      9221.11089956
  Solvation  Ediel_sol  =         0.00000000
  ---------------------------------------------------
  free energy    TOTEN  =      -119.42071721 eV

  energy without entropy =     -119.42057411  energy(sigma->0) =     -119.42064566


--------------------------------------------------------------------------------------------------------




--------------------------------------- Iteration      1(  27)  ---------------------------------------


    POTLOK:  cpu time      0.1593: real time      0.1594
    SETDIJ:  cpu time      0.4578: real time      0.4581
     EDDAV:  cpu time     56.1751: real time     56.2380
       DOS:  cpu time      0.0099: real time      0.0099
    CHARGE:  cpu time      0.9273: real time      0.9282
    MIXING:  cpu time      0.0929: real time      0.0929
    --------------------------------------------
      LOOP:  cpu time     57.8223: real time     57.8865

 eigenvalue-minimisations  : 12176
 total energy-change (2. order) : 0.5116208E-03  (-0.7096960E-04)
 number of electron     140.0000003 magnetization 
 augmentation part       27.2447958 magnetization 

 Broyden mixing:
  rms(total) = 0.66699E-01    rms(broyden)= 0.66698E-01
  rms(prec ) = 0.66894E-01
[...]
      2     -12.5996      2.00000
      3     -12.4693      2.00000
      4     -12.4693      2.00000
      5     -12.4605      2.00000
      6     -12.4603      2.00000
      7     -12.3291      2.00000
      8     -12.3289      2.00000
      9     -12.1673      2.00000
     10     -12.1673      2.00000
     11      -7.3825      2.00000
     12      -7.3824      2.00000
     13      -7.1479      2.00000
     14      -7.1476      2.00000
     15      -6.5192      2.00000
     16      -6.5192      2.00000
     17      -6.0763      2.00000
     18      -6.0759      2.00000
     19      -5.9465      2.00000
     20      -5.9461      2.00000
     21      -5.1472      2.00000
     22      -5.1466      2.00000
     23      -5.1444      2.00000
     24      -5.1443      2.00000
     25      -4.8575      2.00000
     26      -4.8573      2.00000
     27      -4.6669      2.00000
     28      -4.6664      2.00000
     29      -4.6108      2.00000
     30      -4.6101      2.00000
     31      -4.5495      2.00000
     32      -4.5489      2.00000
     33      -4.4715      2.00000
     34      -4.4713      2.00000
     35      -4.3447      2.00000
     36      -4.3445      2.00000
     37      -4.0422      2.00000
     38      -4.0416      2.00000
     39      -4.0104      2.00000
     40      -4.0104      2.00000
     41      -3.8422      2.00000
     42      -3.8420      2.00000
     43      -3.6072      2.00000
     44      -3.6072      2.00000
     45      -3.4397      2.00000
     46      -3.4396      2.00000
     47      -3.3436      2.00000
     48      -3.3436      2.00000
     49      -3.3199      2.00000
     50      -3.3199      2.00000
     51      -3.0476      2.00000
     52      -3.0475      2.00000
     53      -3.0168      2.00000
     54      -3.0165      2.00000
     55      -2.9189      2.00000
     56      -2.9181      2.00000
     57      -2.6341      2.00000
     58      -2.6338      2.00000
     59      -2.4775      2.00000
     60      -2.4771      2.00000
     61      -2.4551      2.00000
     62      -2.4548      2.00000
     63      -2.3332      2.00000
     64      -2.3329      2.00000
     65      -2.2810      2.00000
     66      -2.2807      2.00000
     67      -2.0394      2.00000
     68      -2.0394      2.00000
     69      -1.7992      2.00000
     70      -1.7988      2.00000
     71      -0.7452      0.00000
     72      -0.7443      0.00000
     73      -0.0947      0.00000
     74      -0.0941      0.00000
     75       0.1249      0.00000
     76       0.1256      0.00000
     77       0.1670      0.00000
     78       0.1671      0.00000
     79       0.6691      0.00000
     80       0.6692      0.00000
     81       0.9309      0.00000
     82       0.9310      0.00000
     83       0.9737      0.00000
     84       0.9737      0.00000
     85       1.0405      0.00000
     86       1.0408      0.00000
     87       1.6856      0.00000
     88       1.6857      0.00000
     89       1.7589      0.00000
     90       1.7593      0.00000
     91       2.4927      0.00000
     92       2.4932      0.00000
     93       2.5269      0.00000
     94       2.5271      0.00000
     95       3.0114      0.00000
     96       3.0118      0.00000
     97       3.2012      0.00000
     98       3.2022      0.00000
     99       3.8534      0.00000
    100       3.8535      0.00000
    101       3.9788      0.00000
    102       3.9793      0.00000
    103       3.9795      0.00000
    104       3.9799      0.00000
    105       4.2461      0.00000
    106       4.2465      0.00000
    107       4.5322      0.00000
    108       4.5323      0.00000
    109       4.6927      0.00000
    110       4.6929      0.00000
    111       4.8742      0.00000
    112       4.8747      0.00000
    113       5.4548      0.00000
    114       5.4550      0.00000
    115       5.5251      0.00000
    116       5.5261      0.00000
    117       5.6100      0.00000
    118       5.6100      0.00000
    119       5.7318      0.00000
    120       5.7321      0.00000
    121       5.8766      0.00000
    122       5.8770      0.00000
    123       5.9675      0.00000
    124       5.9682      0.00000
    125       6.0496      0.00000
    126       6.0498      0.00000
    127       6.1776      0.00000
    128       6.1777      0.00000
    129       6.2152      0.00000
    130       6.2155      0.00000
    131       6.2836      0.00000
    132       6.2837      0.00000
    133       6.5378      0.00000
    134       6.5379      0.00000
    135       6.7579      0.00000
    136       6.7580      0.00000
    137       6.7605      0.00000
    138       6.7606      0.00000
    139       6.9964      0.00000
    140       6.9965      0.00000


--------------------------------------------------------------------------------------------------------


 soft charge-density along one line, spin component           1
         0         1         2         3         4         5         6         7         8         9
 total charge-density along one line
 
 pseudopotential strength for first ion, spin component:           1
 -7.677   0.001  -0.000  -0.000   0.000  -9.198   0.001  -0.000
  0.001  -7.684  -0.000   0.000   0.000   0.001  -9.207  -0.000
 -0.000  -0.000  -7.688   0.004  -0.005  -0.000  -0.000  -9.210
 -0.000   0.000   0.004  -7.686   0.002  -0.000   0.000   0.005
  0.000   0.000  -0.005   0.002  -7.685   0.000   0.000  -0.006
 -9.198   0.001  -0.000  -0.000   0.000 -11.000   0.001  -0.000
  0.001  -9.207  -0.000   0.000   0.000   0.001 -11.011  -0.000
 -0.000  -0.000  -9.210   0.005  -0.006  -0.000  -0.000 -11.016
 -0.000   0.000   0.005  -9.208   0.003  -0.000   0.000   0.006
  0.000   0.000  -0.006   0.003  -9.208   0.000   0.000  -0.007
 -0.000   0.000   0.002  -0.002  -0.004  -0.000   0.000   0.002
 -0.000   0.000   0.003  -0.003  -0.006  -0.000   0.000   0.004
  0.003  -0.002  -0.000   0.000  -0.000   0.004  -0.002  -0.000
  0.000   0.000  -0.006   0.008  -0.004   0.000   0.000  -0.007
  0.000   0.000  -0.002  -0.009   0.008   0.000   0.000  -0.002
 -0.003   0.003   0.000  -0.000   0.000  -0.004   0.004   0.000
 -0.000  -0.000   0.008  -0.008   0.004  -0.000  -0.000   0.010
 -0.000  -0.000   0.002   0.011  -0.008  -0.000  -0.000   0.002
 total augmentation occupancy for first ion, spin component:           1
  5.223   0.664   0.000   0.000  -0.000  -2.783  -0.493   0.000  -0.000   0.000   0.000  -0.000  -0.160   0.000  -0.000  -0.007
  0.664   5.970   0.000   0.000  -0.000  -0.493  -3.318  -0.000  -0.000   0.000  -0.000   0.000   0.209   0.000   0.000   0.008
  0.000   0.000   3.740   0.444  -0.615   0.000  -0.000  -1.906  -0.236   0.348  -0.181   0.046  -0.000   0.091   0.112   0.000
  0.000   0.000   0.444   4.711  -0.612  -0.000  -0.000  -0.237  -2.597   0.432   0.092  -0.028   0.000   0.037  -0.263  -0.000
 -0.000  -0.000  -0.615  -0.612   4.535   0.000   0.000   0.348   0.432  -2.502   0.241  -0.040  -0.000  -0.257   0.006  -0.000
 -2.783  -0.493   0.000  -0.000   0.000   1.529   0.348  -0.000   0.000  -0.000  -0.000   0.000   0.101  -0.000   0.000   0.004
 -0.493  -3.318  -0.000  -0.000   0.000   0.348   1.918   0.000   0.000  -0.000   0.000  -0.000  -0.130  -0.000  -0.000  -0.005
  0.000  -0.000  -1.906  -0.237   0.348  -0.000   0.000   1.018   0.137  -0.198   0.126  -0.023   0.000  -0.057  -0.063  -0.000
 -0.000  -0.000  -0.236  -2.597   0.432   0.000   0.000   0.137   1.486  -0.300  -0.063   0.017  -0.000  -0.014   0.172   0.000
  0.000   0.000   0.348   0.432  -2.502  -0.000  -0.000  -0.198  -0.300   1.422  -0.112   0.019   0.000   0.154  -0.013   0.000
  0.000  -0.000  -0.181   0.092   0.241  -0.000   0.000   0.126  -0.063  -0.112   1.882  -0.227   0.000   0.015  -0.048   0.000
 -0.000   0.000   0.046  -0.028  -0.040   0.000  -0.000  -0.023   0.017   0.019  -0.227   0.031   0.000   0.003   0.001   0.000
 -0.160   0.209  -0.000   0.000  -0.000   0.101  -0.130   0.000  -0.000   0.000   0.000   0.000   0.312   0.000   0.000   0.010
  0.000   0.000   0.091   0.037  -0.257  -0.000  -0.000  -0.057  -0.014   0.154   0.015   0.003   0.000   0.304   0.012   0.000
 -0.000   0.000   0.112  -0.263   0.006   0.000  -0.000  -0.063   0.172  -0.013  -0.048   0.001   0.000   0.012   0.344   0.000
 -0.007   0.008   0.000  -0.000  -0.000   0.004  -0.005  -0.000   0.000   0.000   0.000   0.000   0.010   0.000   0.000   0.000
 -0.000   0.000   0.005  -0.003  -0.007   0.000  -0.000  -0.003   0.002   0.005   0.001   0.000   0.000   0.009   0.001   0.000
 -0.000   0.000   0.004  -0.005  -0.002   0.000  -0.000  -0.002   0.004   0.001  -0.002   0.000   0.000   0.001   0.010   0.000


------------------------ aborting loop because EDIFF is reached ----------------------------------------





 total charge

# of ion       s       p       d       tot
------------------------------------------
    1        0.576   0.659   3.204   4.439
    2        0.576   0.659   3.204   4.439
    3        0.576   0.659   3.204   4.439
    4        0.576   0.659   3.204   4.439
    5        0.458   0.532   8.436   9.426
    6        0.458   0.531   8.436   9.426
    7        0.458   0.532   8.436   9.426
    8        0.458   0.532   8.436   9.426
    9        0.415   0.470   8.421   9.306
   10        0.415   0.470   8.421   9.306
   11        1.374   1.958   0.062   3.395
   12        1.374   1.958   0.062   3.395
   13        1.376   1.986   0.061   3.424
   14        1.376   1.986   0.061   3.424
   15        1.374   1.958   0.062   3.395
   16        1.374   1.958   0.062   3.395
   17        1.376   1.986   0.061   3.424
   18        1.376   1.986   0.061   3.424
   19        1.367   2.015   0.060   3.442
   20        1.367   2.015   0.060   3.442
--------------------------------------------------
tot         18.703  25.510  64.018 108.231
 
    CHARGE:  cpu time      0.9208: real time      0.9214
    FORLOC:  cpu time      0.1134: real time      0.1135
    FORNL :  cpu time     12.5087: real time     12.5177
    STRESS:  cpu time     37.6161: real time     37.6430
    FORCOR:  cpu time      0.1738: real time      0.1739
    FORHAR:  cpu time      0.0566: real time      0.0566
    MIXING:  cpu time      0.0120: real time      0.0121
    OFIELD:  cpu time      0.0000: real time      0.0000

  FORCE on cell =-STRESS in cart. coord.  units (eV):
  Direction    XX          YY          ZZ          XY          YZ          ZX
  --------------------------------------------------------------------------------------
  Alpha Z    66.99798    66.99798    66.99798
  Ewald   34419.20487 35129.83058-39702.47554    -0.00000     0.00022     0.12264
  Hartree 36197.66256 36980.53613-34732.18461    -0.00000     0.00008     0.01892
  E(xc)    -658.21928  -657.42324  -660.37666     0.00000    -0.00000    -0.00172
  Local  -73063.96204-74574.12789 71960.08127     0.00000    -0.00027    -0.13622
  n-local  1021.31370  1014.29989  1029.29939    -0.01846    -0.00008     0.01609
  augment   798.38881   814.86823   814.79943     0.00000     0.00000    -0.00493
  Kinetic  1218.38643  1224.85561  1223.75834     0.03749     0.00009     0.00215
  Fock        0.00000     0.00000     0.00000     0.00000     0.00000     0.00000
  -------------------------------------------------------------------------------------
  Total      -0.22697    -0.16271    -0.10041     0.00000    -0.00000     0.01694
  in kB      -0.21947    -0.15734    -0.09709     0.00000    -0.00000     0.01638
  external pressure =       -0.16 kB  Pullay stress =        0.00 kB


 VOLUME and BASIS-vectors are now :
 -----------------------------------------------------------------------------
  energy-cutoff  :      303.22
  volume of cell :     1656.92
      direct lattice vectors                 reciprocal lattice vectors
    17.803673428  0.000000000  0.000000000     0.056168184  0.000000000  0.000000000
     0.000000000  3.717366373  0.000000000     0.000000000  0.269007652 -0.000000000
     0.000000000  0.000000000 25.035562452     0.000000000  0.000000000  0.039943181

  length of vectors
    17.803673428  3.717366373 25.035562452     0.056168184  0.269007652  0.039943181


 FORCES acting on ions
    electron-ion (+dipol)            ewald-force                    non-local-force                 convergence-correction
 -----------------------------------------------------------------------------------------------
   -.109E+03 0.129E-04 0.500E+02   0.108E+03 -.388E-04 -.495E+02   0.637E+00 -.261E-16 -.438E+00   -.139E-02 -.233E-09 -.227E-03
   -.109E+03 -.187E-04 -.500E+02   0.108E+03 0.388E-04 0.496E+02   0.635E+00 0.261E-16 0.438E+00   -.115E-02 -.105E-09 0.232E-03
   0.109E+03 0.129E-04 0.500E+02   -.108E+03 -.388E-04 -.496E+02   -.646E+00 -.262E-16 -.442E+00   0.115E-02 -.221E-09 -.171E-03
   0.109E+03 -.187E-04 -.500E+02   -.109E+03 0.388E-04 0.495E+02   -.651E+00 0.263E-16 0.443E+00   0.139E-02 -.847E-10 0.342E-03
   0.813E+02 0.295E-04 0.563E+03   -.815E+02 -.961E-04 -.562E+03   0.225E+00 -.398E-16 -.663E+00   0.270E-02 -.962E-09 0.940E-02
   0.812E+02 -.277E-04 -.563E+03   -.814E+02 0.961E-04 0.562E+03   0.226E+00 0.398E-16 0.663E+00   0.352E-02 -.420E-09 -.824E-02
   -.810E+02 0.295E-04 0.562E+03   0.813E+02 -.961E-04 -.562E+03   -.230E+00 -.399E-16 -.667E+00   -.253E-02 -.919E-09 0.830E-02
   -.809E+02 -.277E-04 -.563E+03   0.812E+02 0.961E-04 0.562E+03   -.232E+00 0.399E-16 0.665E+00   -.377E-02 -.740E-10 -.914E-02
   -.539E+00 -.351E-05 0.492E+02   0.526E+00 -.448E-04 -.488E+02   0.173E-01 -.273E-16 -.455E+00   0.158E-02 0.722E-10 0.177E-02
   -.388E+00 0.208E-04 -.488E+02   0.381E+00 0.448E-04 0.484E+02   0.114E-01 0.274E-16 0.458E+00   -.152E-02 -.276E-08 -.151E-02
   -.105E+03 0.764E-04 0.708E+03   0.107E+03 0.334E-04 -.716E+03   -.146E+01 0.459E-15 0.766E+01   -.103E-02 0.437E-09 0.323E-02
   -.105E+03 0.163E-04 -.708E+03   0.107E+03 -.334E-04 0.716E+03   -.146E+01 -.459E-15 -.767E+01   -.740E-03 -.425E-09 -.281E-02
   0.538E+02 0.711E-06 0.658E+03   -.550E+02 -.899E-05 -.664E+03   0.118E+01 0.330E-15 0.551E+01   0.443E-03 0.121E-10 0.244E-02
   0.537E+02 0.105E-03 -.658E+03   -.549E+02 0.899E-05 0.664E+03   0.119E+01 -.330E-15 -.551E+01   0.480E-04 -.919E-09 -.178E-02
   0.105E+03 0.763E-04 0.708E+03   -.107E+03 0.335E-04 -.716E+03   0.145E+01 0.459E-15 0.767E+01   0.110E-02 0.437E-09 0.273E-02
   0.106E+03 0.163E-04 -.708E+03   -.107E+03 -.334E-04 0.716E+03   0.145E+01 -.459E-15 -.767E+01   0.669E-03 -.473E-09 -.332E-02
   -.539E+02 0.710E-06 0.659E+03   0.551E+02 -.898E-05 -.664E+03   -.118E+01 0.331E-15 0.552E+01   -.102E-03 0.676E-11 0.196E-02
   -.539E+02 0.105E-03 -.659E+03   0.551E+02 0.899E-05 0.664E+03   -.118E+01 -.331E-15 -.552E+01   -.428E-03 -.904E-09 -.224E-02
   -.130E+00 0.166E-04 0.600E+03   0.131E+00 -.293E-04 -.605E+03   -.122E-02 0.269E-15 0.449E+01   -.582E-03 -.127E-09 0.163E-02
   -.173E+00 0.841E-04 -.600E+03   0.170E+00 0.293E-04 0.604E+03   0.264E-02 -.269E-15 -.449E+01   0.602E-03 0.288E-09 -.162E-02
 -----------------------------------------------------------------------------------------------
   -.349E-02 0.506E-03 -.694E-02   -.799E-13 0.631E-13 -.227E-12   -.679E-02 0.441E-18 0.722E-02   -.455E-04 -.738E-08 0.975E-03
 
 
 POSITION                                       TOTAL-FORCE (eV/Angst)
 -----------------------------------------------------------------------------------
     15.51898      0.92934     12.44182        -0.007468      0.000000      0.008650
      6.61685      2.78802     12.59408        -0.010696     -0.000000     -0.010704
      2.29925      0.92934     12.44144         0.007475      0.000000      0.007953
     11.20189      2.78802     12.59429         0.002630     -0.000000     -0.007113
     12.97833      0.92934     11.77745        -0.002084      0.000000      0.007178
      4.07598      2.78802     13.25903        -0.002623     -0.000000     -0.009032
      4.83946      0.92934     11.77709         0.000732      0.000000      0.008850
     13.74157      2.78802     13.25919         0.001144     -0.000000     -0.009362
      8.90704      0.92934     12.37051         0.006772     -0.000000     -0.004762
      0.00563      2.78802     12.66458         0.003003      0.000000      0.004597
     14.31190      2.78802     10.58080        -0.006684     -0.000000     -0.000158
      5.40956      0.92934     14.45539        -0.004159     -0.000000     -0.000046
     10.69318      0.92934     10.56251         0.004088     -0.000000     -0.003967
      1.79052      2.78802     14.47337         0.007709      0.000000      0.003069
      3.50692      2.78802     10.58040        -0.000844      0.000000      0.000893
     12.40877      0.92934     14.45569        -0.000169     -0.000000     -0.000750
      7.12347      0.92934     10.56106         0.000399      0.000000      0.003017
     16.02572      2.78802     14.47455         0.000826     -0.000000     -0.002177
      0.00715      0.92934     10.89807        -0.000992      0.000000      0.006377
      8.90899      2.78802     14.13663         0.000941     -0.000000     -0.002515
 -----------------------------------------------------------------------------------
    total drift:                               -0.010319      0.000506      0.001256


--------------------------------------------------------------------------------------------------------



  FREE ENERGIE OF THE ION-ELECTRON SYSTEM (eV)
  ---------------------------------------------------
  free  energy   TOTEN  =      -119.41952175 eV

  energy  without entropy=     -119.41939659  energy(sigma->0) =     -119.41945917
 


--------------------------------------------------------------------------------------------------------


    POTLOK:  cpu time      0.6166: real time      0.6172


--------------------------------------------------------------------------------------------------------


     LOOP+:  cpu time   2317.8084: real time   2320.7782
    4ORBIT:  cpu time      0.0000: real time      0.0000



 total charge

# of ion       s       p       d       tot
------------------------------------------
    1        0.576   0.659   3.204   4.439
    2        0.576   0.659   3.204   4.439
    3        0.576   0.659   3.204   4.439
    4        0.576   0.659   3.204   4.439
    5        0.458   0.532   8.436   9.426
    6        0.458   0.531   8.436   9.426
    7        0.458   0.532   8.436   9.426
    8        0.458   0.532   8.436   9.426
    9        0.415   0.470   8.421   9.306
   10        0.415   0.470   8.421   9.306
   11        1.374   1.958   0.062   3.395
   12        1.374   1.958   0.062   3.395
   13        1.376   1.986   0.061   3.424
   14        1.376   1.986   0.061   3.424
   15        1.374   1.958   0.062   3.395
   16        1.374   1.958   0.062   3.395
   17        1.376   1.986   0.061   3.424
   18        1.376   1.986   0.061   3.424
   19        1.367   2.015   0.060   3.442
   20        1.367   2.015   0.060   3.442
--------------------------------------------------
tot         18.703  25.510  64.018 108.231
 

 total amount of memory used by VASP MPI-rank0   184450. kBytes
=======================================================================

   base      :      30000. kBytes
   nonlr-proj:       5374. kBytes
   fftplans  :      30071. kBytes
   grid      :      16193. kBytes
   one-center:         77. kBytes
   wavefun   :     102735. kBytes
 
  
  
 General timing and accounting informations for this job:
 ========================================================
  
                  Total CPU time used (sec):     2331.223
                            User time (sec):     2329.852
                          System time (sec):        1.371
                         Elapsed time (sec):     2335.281
  
                   Maximum memory used (kb):      478668.
                   Average memory used (kb):          N/A
  
                          Minor page faults:       336039
                          Major page faults:         3958
                 Voluntary context switches:          377
